Program Version,EnergyPlus, Version 9.5.0-de239b2e5f, YMD=2023.02.13 19:58
1,5,Environment Title[],Latitude[deg],Longitude[deg],Time Zone[],Elevation[m]
2,8,Day of Simulation[],Month[],Day of Month[],DST Indicator[1=yes 0=no],Hour[],StartMinute[],EndMinute[],DayType
3,5,Cumulative Day of Simulation[],Month[],Day of Month[],DST Indicator[1=yes 0=no],DayType  ! When Daily Report Variables Requested
4,2,Cumulative Days of Simulation[],Month[]  ! When Monthly Report Variables Requested
5,1,Cumulative Days of Simulation[] ! When Run Period Report Variables Requested
6,1,Calendar Year of Simulation[] ! When Annual Report Variables Requested
7,1,Environment,Site Outdoor Air Drybulb Temperature [C] !TimeStep
8,1,ZONE ONE,Zone Windows Total Transmitted Solar Radiation Rate [W] !TimeStep
9,1,ZN001:WALL001,Surface Outside Face Sunlit Fraction [] !TimeStep
10,1,ZN001:WALL001,Surface Outside Face Incident Solar Radiation Rate per Area [W/m2] !TimeStep
11,1,ZN001:WALL001:WIN001,Surface Outside Face Sunlit Fraction [] !TimeStep
12,1,ZN001:WALL001:WIN001,Surface Outside Face Incident Solar Radiation Rate per Area [W/m2] !TimeStep
13,1,ZN001:WALL001:WIN001,Surface Window Transmitted Solar Radiation Rate [W] !TimeStep
14,1,ZN001:WALL001,Surface Inside Face Temperature [C] !TimeStep
15,1,ZN001:WALL001,Surface Outside Face Temperature [C] !TimeStep
16,1,ZN001:WALL001:WIN001,Surface Inside Face Temperature [C] !TimeStep
17,1,ZN001:WALL001:WIN001,Surface Outside Face Temperature [C] !TimeStep
18,1,ZONE ONE,Zone Mean Air Temperature [C] !TimeStep
End of Data Dictionary
1,RUN PERIOD 1,  41.98, -87.92,  -6.00, 201.00
2,1, 1, 1, 0, 1, 0.00,15.00,Tuesday
7,-4.324999999999999
8,0.0
9,0.0
10,0.0
11,0.0
12,0.0
13,0.0
14,6.3509594526041719
15,-5.888293112942627
16,3.572519836139122
17,-4.018950814407958
18,6.816245091428695
2,1, 1, 1, 0, 1,15.00,30.00,Tuesday
7,-6.949999999999999
8,0.0
9,0.0
10,0.0
11,0.0
12,0.0
13,0.0
14,6.165803552097716
15,-8.355681042932864
16,2.901654676513999
17,-6.054980981348365
18,6.713485183915068
2,1, 1, 1, 0, 1,30.00,45.00,Tuesday
7,-9.575
8,0.0
9,0.0
10,0.0
11,0.0
12,0.0
13,0.0
14,5.95992013609594
15,-10.83107006437494
16,2.224437810917834
17,-8.097122389445247
18,6.578032119886695
2,1, 1, 1, 0, 1,45.00,60.00,Tuesday
7,-12.2
8,0.0
9,0.0
10,0.0
11,0.0
12,0.0
13,0.0
14,5.7376776872739889
15,-13.313087249673476
16,1.5323313050033108
17,-10.147034181795562
18,6.42004342581563
2,1, 1, 1, 0, 2, 0.00,15.00,Tuesday
7,-12.075
8,0.0
9,0.0
10,0.0
11,0.0
12,0.0
13,0.0
14,5.6650476873227399
15,-13.114066869492241
16,1.4719489963071056
17,-9.993734293737305
18,6.2780571230586139
2,1, 1, 1, 0, 2,15.00,30.00,Tuesday
7,-11.95
8,0.0
9,0.0
10,0.0
11,0.0
12,0.0
13,0.0
14,5.579126900717854
15,-12.937071204748259
16,1.4411931709034889
17,-9.856711495972548
18,6.169280606329718
2,1, 1, 1, 0, 2,30.00,45.00,Tuesday
7,-11.825
8,0.0
9,0.0
10,0.0
11,0.0
12,0.0
13,0.0
14,5.5109975711983509
15,-12.758896617733333
16,1.4166796594914786
17,-9.719021682835148
18,6.087816695123088
2,1, 1, 1, 0, 2,45.00,60.00,Tuesday
7,-11.7
8,0.0
9,0.0
10,0.0
11,0.0
12,0.0
13,0.0
14,5.4544203164064
15,-12.580805099132663
16,1.4089795971419222
17,-9.588228361807296
18,6.022218633311132
2,1, 1, 1, 0, 3, 0.00,15.00,Tuesday
7,-11.549999999999999
8,0.0
9,0.0
10,0.0
11,0.0
12,0.0
13,0.0
14,5.3995918969722409
15,-12.45435108415645
16,1.4029053510107588
17,-9.430599461052225
18,5.963233004717736
2,1, 1, 1, 0, 3,15.00,30.00,Tuesday
7,-11.399999999999999
8,0.0
9,0.0
10,0.0
11,0.0
12,0.0
13,0.0
14,5.348077486113901
15,-12.329254515929776
16,1.4062079300376809
17,-9.292135946004465
18,5.906500829428517
2,1, 1, 1, 0, 3,30.00,45.00,Tuesday
7,-11.25
8,0.0
9,0.0
10,0.0
11,0.0
12,0.0
13,0.0
14,5.297341931779742
15,-12.205659288947436
16,1.4036064320642936
17,-9.134269628813627
18,5.850699785422973
2,1, 1, 1, 0, 3,45.00,60.00,Tuesday
7,-11.1
8,0.0
9,0.0
10,0.0
11,0.0
12,0.0
13,0.0
14,5.247237473145691
15,-12.083627390122715
16,1.4093331515971955
17,-8.995093064954574
18,5.795784762795919
2,1, 1, 1, 0, 4, 0.00,15.00,Tuesday
7,-11.1
8,0.0
9,0.0
10,0.0
11,0.0
12,0.0
13,0.0
14,5.19318729959045
15,-12.05581061043895
16,1.348035134808356
17,-9.031844651411916
18,5.740653920481061
2,1, 1, 1, 0, 4,15.00,30.00,Tuesday
7,-11.1
8,0.0
9,0.0
10,0.0
11,0.0
12,0.0
13,0.0
14,5.139547412569996
15,-12.029070952819835
16,1.2935625044819972
17,-9.07509673770727
18,5.684903965293666
2,1, 1, 1, 0, 4,30.00,45.00,Tuesday
7,-11.1
8,0.0
9,0.0
10,0.0
11,0.0
12,0.0
13,0.0
14,5.085650439681416
15,-12.00383761876763
16,1.2400070119031739
17,-9.118017549400122
18,5.628720930232849
2,1, 1, 1, 0, 4,45.00,60.00,Tuesday
7,-11.1
8,0.0
9,0.0
10,0.0
11,0.0
12,0.0
13,0.0
14,5.031638409987178
15,-11.979978583504826
16,1.1867216112189568
17,-9.159886124373884
18,5.572396782234072
2,1, 1, 1, 0, 5, 0.00,15.00,Tuesday
7,-10.975
8,0.0
9,0.0
10,0.0
11,0.0
12,0.0
13,0.0
14,4.983333357528538
15,-11.858091976531446
16,1.1769493428272427
17,-9.078242938627568
18,5.51728594046786
2,1, 1, 1, 0, 5,15.00,30.00,Tuesday
7,-10.85
8,0.0
9,0.0
10,0.0
11,0.0
12,0.0
13,0.0
14,4.935281701553028
15,-11.736270266149156
16,1.1644328437668037
17,-8.98851994731183
18,5.463908059618143
2,1, 1, 1, 0, 5,30.00,45.00,Tuesday
7,-10.725
8,0.0
9,0.0
10,0.0
11,0.0
12,0.0
13,0.0
14,4.88832757014831
15,-11.614424297912703
16,1.1521403243069699
17,-8.897839685608347
18,5.411999586358653
2,1, 1, 1, 0, 5,45.00,60.00,Tuesday
7,-10.6
8,0.0
9,0.0
10,0.0
11,0.0
12,0.0
13,0.0
14,4.842280309269865
15,-11.4925874337982
16,1.1406678217741729
17,-8.806869043613688
18,5.3611423020326989
2,1, 1, 1, 0, 6, 0.00,15.00,Tuesday
7,-10.6
8,0.0
9,0.0
10,0.0
11,0.0
12,0.0
13,0.0
14,4.789256622517538
15,-11.493620593024439
16,1.0965895222340124
17,-8.810001043186503
18,5.309653843167444
2,1, 1, 1, 0, 6,15.00,30.00,Tuesday
7,-10.6
8,0.0
9,0.0
10,0.0
11,0.0
12,0.0
13,0.0
14,4.73687463237312
15,-11.49460260197913
16,1.0539409319088123
17,-8.819515668529903
18,5.256808258339842
2,1, 1, 1, 0, 6,30.00,45.00,Tuesday
7,-10.6
8,0.0
9,0.0
10,0.0
11,0.0
12,0.0
13,0.0
14,4.6839467563830239
15,-11.495627116090175
16,1.0115252879711534
17,-8.829646079715929
18,5.202908546409211
2,1, 1, 1, 0, 6,45.00,60.00,Tuesday
7,-10.6
8,0.0
9,0.0
10,0.0
11,0.0
12,0.0
13,0.0
14,4.630709536948788
15,-11.496649184575713
16,0.968762339101886
17,-8.839946026422809
18,5.14849292638448
2,1, 1, 1, 0, 7, 0.00,15.00,Tuesday
7,-10.6
8,0.0
9,0.0
10,0.0
11,0.0
12,0.0
13,0.0
14,4.5794045419721949
15,-11.473646525866317
16,0.916707895323043
17,-8.875926715106118
18,5.094196859812091
2,1, 1, 1, 0, 7,15.00,30.00,Tuesday
7,-10.6
8,0.0
9,0.0
10,0.0
11,0.0
12,0.0
13,0.0
14,4.527983336956956
15,-11.451838039235858
16,0.8668247943505776
17,-8.91223919483025
18,5.040358216535454
2,1, 1, 1, 0, 7,30.00,45.00,Tuesday
7,-10.6
8,0.0
9,0.0
10,0.0
11,0.0
12,0.0
13,0.0
14,4.476845043132893
15,-11.431140005745072
16,0.8174903620455893
17,-8.947684000645836
18,4.98697291653128
2,1, 1, 1, 0, 7,45.00,60.00,Tuesday
7,-10.6
8,0.0
9,0.0
10,0.0
11,0.0
12,0.0
13,0.0
14,4.426002296732381
15,-11.41148626348382
16,0.7687162580156155
17,-8.982076788322047
18,4.9339433941331409
2,1, 1, 1, 0, 8, 0.00,15.00,Tuesday
7,-10.45
8,0.0
9,0.0
10,0.0
11,0.0
12,0.0
13,0.0
14,4.374708952171982
15,-11.362166877894432
16,0.7516068771464575
17,-8.928181027517724
18,4.881061878681965
2,1, 1, 1, 0, 8,15.00,30.00,Tuesday
7,-10.3
8,173.10321145631117
9,1.0
10,22.819555959623899
11,1.0
12,22.819555959623899
13,173.10321145631117
14,4.447258289004405
15,-9.68841989259195
16,1.0504761069362303
17,-8.594728442779058
18,4.847249112044406
2,1, 1, 1, 0, 8,30.00,45.00,Tuesday
7,-10.15
8,849.9385033316614
9,1.0
10,109.75755355442667
11,1.0
12,109.75755355442667
13,849.9385033316614
14,4.858397529437317
15,-3.3166473429057765
16,2.312891263577683
17,-7.480998396766267
18,4.885366071208526
2,1, 1, 1, 0, 8,45.00,60.00,Tuesday
7,-10.0
8,1545.5219247059973
9,1.0
10,195.8764694434918
11,1.0
12,195.8764694434918
13,1545.5219247059973
14,5.389733688808665
15,3.170470883420838
16,3.6892008342942406
17,-6.346943060809792
18,5.002574904499006
2,1, 1, 1, 0, 9, 0.00,15.00,Tuesday
7,-9.725
8,2238.709489075825
9,1.0
10,278.97248314719988
11,1.0
12,278.97248314719988
13,2238.709489075825
14,5.815490648053103
15,8.340274556625934
16,5.115832637722178
17,-5.327024035552995
18,5.175686318196635
2,1, 1, 1, 0, 9,15.00,30.00,Tuesday
7,-9.45
8,2969.4086166752306
9,1.0
10,364.91995730569456
11,1.0
12,364.91995730569456
13,2969.4086166752306
14,6.269891364198506
15,13.4191449880748
16,6.568512768441849
17,-4.301056386381674
18,5.394709770310831
2,1, 1, 1, 0, 9,30.00,45.00,Tuesday
7,-9.175
8,3452.8363830973496
9,1.0
10,420.35879993239237
11,1.0
12,420.35879993239237
13,3452.8363830973496
14,6.594549172718846
15,16.176319516099754
16,7.527318060496896
17,-3.668503870998279
18,5.638745666375287
2,1, 1, 1, 0, 9,45.00,60.00,Tuesday
7,-8.9
8,3954.6739069548109
9,1.0
10,478.00138373643099
11,1.0
12,478.00138373643099
13,3954.6739069548109
14,6.973751216304585
15,19.1709864231964
16,8.479520430386743
17,-3.016572350092531
18,5.897275031842644
2,1, 1, 1, 0,10, 0.00,15.00,Tuesday
7,-8.350000000000002
8,4467.113842203691
9,1.0
10,536.9185644770597
11,1.0
12,536.9185644770597
13,4467.113842203691
14,7.300774245842563
15,20.286964836782834
16,9.456036905594033
17,-2.344523270731372
18,6.1704520145735659
2,1, 1, 1, 0,10,15.00,30.00,Tuesday
7,-7.800000000000001
8,4997.25703813173
9,1.0
10,598.0969199229219
11,1.0
12,598.0969199229219
13,4997.25703813173
14,7.657576739116953
15,21.53875304827586
16,10.448424746122555
17,-1.671839439434052
18,6.4638243744530678
2,1, 1, 1, 0,10,30.00,45.00,Tuesday
7,-7.25
8,5345.03712769667
9,1.0
10,637.6133352894237
11,1.0
12,637.6133352894237
13,5345.03712769667
14,7.9364458487117599
15,21.597320924209705
16,11.167941568490165
17,-1.201611318686787
18,6.587531688115533
2,1, 1, 1, 0,10,45.00,60.00,Tuesday
7,-6.7
8,5687.69460126509
9,1.0
10,676.6412284283772
11,1.0
12,676.6412284283772
13,5687.69460126509
14,8.193878230151498
15,21.75538563914459
16,11.838265666339226
17,-0.7375008380898862
18,6.831544227612031
2,1, 1, 1, 0,11, 0.00,15.00,Tuesday
7,-6.275
8,6024.1182617392619
9,1.0
10,715.0112779846514
11,1.0
12,715.0112779846514
13,6024.1182617392619
14,8.49979329671947
15,23.852262316144416
16,12.534906752297445
17,-0.041715578148227908
18,7.020472419184845
2,1, 1, 1, 0,11,15.00,30.00,Tuesday
7,-5.85
8,6352.622926754498
9,1.0
10,752.5077794605232
11,1.0
12,752.5077794605232
13,6352.622926754498
14,8.873175526394839
15,25.789126314101855
16,13.255478707691737
17,0.641464048967066
18,7.46314068306561
2,1, 1, 1, 0,11,30.00,45.00,Tuesday
7,-5.425
8,6254.991861714689
9,1.0
10,742.5988714321785
11,1.0
12,742.5988714321785
13,6254.991861714689
14,9.161459009564178
15,25.64279195160132
16,13.472316181331735
17,0.941577381041725
18,7.855623243529939
2,1, 1, 1, 0,11,45.00,60.00,Tuesday
7,-5.0
8,6115.488455937522
9,1.0
10,727.8169025450712
11,1.0
12,727.8169025450712
13,6115.488455937522
14,9.411823576801343
15,25.41383297462756
16,13.605206358137082
17,1.2096989429227279
18,8.1895863093333
2,1, 1, 1, 0,12, 0.00,15.00,Tuesday
7,-4.575
8,5875.584866177884
9,1.0
10,700.3759009170325
11,1.0
12,700.3759009170325
13,5875.584866177884
14,9.589419802760235
15,24.671754286657966
16,13.577799448332485
17,1.4169008405173145
18,8.471641973783916
2,1, 1, 1, 0,12,15.00,30.00,Tuesday
7,-4.15
8,5697.665319314475
9,1.0
10,681.6705029034473
11,1.0
12,681.6705029034473
13,5697.665319314475
14,9.751939790692353
15,24.340944398936818
16,13.605672322705346
17,1.6870268496796826
18,8.715960997545697
2,1, 1, 1, 0,12,30.00,45.00,Tuesday
7,-3.7249999999999998
8,5002.075619844998
9,1.0
10,602.01865277251
11,1.0
12,602.01865277251
13,5002.075619844998
14,9.696407190246223
15,21.31369481246617
16,12.919299826795168
17,1.4828017190401397
18,8.899877705326136
2,1, 1, 1, 0,12,45.00,60.00,Tuesday
7,-3.3
8,4085.257992218691
9,1.0
10,493.55004396206007
11,1.0
12,493.55004396206007
13,4085.257992218691
14,9.506974109408402
15,17.13559174936071
16,11.787544377461359
17,1.026363511019781
18,8.996986327118942
2,1, 1, 1, 0,13, 0.00,15.00,Tuesday
7,-3.0249999999999996
8,3373.1820495361505
9,1.0
10,412.335026418112
11,1.0
12,412.335026418112
13,3373.1820495361505
14,9.376859078144755
15,14.292008603578694
16,10.8793015073486
17,0.7183075670147332
18,9.02476169320535
2,1, 1, 1, 0,13,15.00,30.00,Tuesday
7,-2.75
8,2470.545264965054
9,1.0
10,305.94037763660148
11,1.0
12,305.94037763660148
13,2470.545264965054
14,9.06589594064449
15,10.11938160433765
16,9.595788549658721
17,0.18068605540804584
18,8.993825081250183
2,1, 1, 1, 0,13,30.00,45.00,Tuesday
7,-2.475
8,2255.52037291475
9,1.0
10,281.0763483922329
11,1.0
12,281.0763483922329
13,2255.52037291475
14,9.04186998943641
15,9.607669841749468
16,9.295761696248519
17,0.29488960148893286
18,8.944865432186555
2,1, 1, 1, 0,13,45.00,60.00,Tuesday
7,-2.2
8,2044.9747465543583
9,1.0
10,256.7721209415886
11,1.0
12,256.7721209415886
13,2044.9747465543583
14,9.005068482666115
15,9.000914601479666
16,9.07026821656217
17,0.43428463075167658
18,8.903305880262379
2,1, 1, 1, 0,14, 0.00,15.00,Tuesday
7,-1.9250000000000003
8,1670.5363844904799
9,1.0
10,210.73276284570657
11,1.0
12,210.73276284570657
13,1670.5363844904799
14,8.859083034387896
15,7.454160462574386
16,8.510966826120069
17,0.354711155784571
18,8.866279792238725
2,1, 1, 1, 0,14,15.00,30.00,Tuesday
7,-1.6500000000000002
8,1483.9755502209094
9,1.0
10,189.38488290342594
11,1.0
12,189.38488290342594
13,1483.9755502209094
14,8.820736568876459
15,7.047910462873356
16,8.275391587956108
17,0.4767323527217968
18,8.83353135168838
2,1, 1, 1, 0,14,30.00,45.00,Tuesday
7,-1.375
8,1415.2927051055099
9,1.0
10,179.3940297802914
11,1.0
12,179.3940297802914
13,1415.2927051055099
14,8.81198723209863
15,7.1734178064389939
16,8.237943940288233
17,0.7113316601751194
18,8.806256845529557
2,1, 1, 1, 0,14,45.00,60.00,Tuesday
7,-1.1
8,1345.825196147699
9,1.0
10,169.43349014176136
11,1.0
12,169.43349014176136
13,1345.825196147699
14,8.799612148886994
15,7.272991056970214
16,8.19413046552512
17,0.9438859261309744
18,8.783688831586249
2,1, 1, 1, 0,15, 0.00,15.00,Tuesday
7,-1.1
8,1416.5654514198496
9,1.0
10,178.15692317953907
11,1.0
12,178.15692317953907
13,1416.5654514198496
14,8.864173464242788
15,8.092196172834648
16,8.327875788074153
17,1.0847743602145102
18,8.769577087803173
2,1, 1, 1, 0,15,15.00,30.00,Tuesday
7,-1.1
8,1330.8243374281975
9,1.0
10,166.40516310952945
11,1.0
12,166.40516310952945
13,1330.8243374281975
14,8.80998020748892
15,7.728887233642364
16,8.192868354754183
17,1.035118271123622
18,8.758451994259437
2,1, 1, 1, 0,15,30.00,45.00,Tuesday
7,-1.1
8,1122.127169485654
9,1.0
10,140.8967369711617
11,1.0
12,140.8967369711617
13,1122.127169485654
14,8.688018116847868
15,6.522548500141715
16,7.821177605688945
17,0.8219852273290371
18,8.739195348335338
2,1, 1, 1, 0,15,45.00,60.00,Tuesday
7,-1.1
8,923.4192090985265
9,1.0
10,116.57355796743004
11,1.0
12,116.57355796743004
13,923.4192090985265
14,8.568105399081598
15,5.315405185792998
16,7.452682237774866
17,0.6011195956102711
18,8.701283127387559
2,1, 1, 1, 0,16, 0.00,15.00,Tuesday
7,-1.1
8,732.8781698368027
9,1.0
10,93.14939272689483
11,1.0
12,93.14939272689483
13,732.8781698368027
14,8.461909171020395
15,4.266441885841791
16,7.126348747732436
17,0.4634255829649305
18,8.642495187070012
2,1, 1, 1, 0,16,15.00,30.00,Tuesday
7,-1.1
8,454.9720957967563
9,1.0
10,57.94047897402063
11,1.0
12,57.94047897402063
13,454.9720957967563
14,8.260976095653705
15,2.1436646619995436
16,6.622228593863838
17,0.17855184655445556
18,8.556113981678417
2,1, 1, 1, 0,16,30.00,45.00,Tuesday
7,-1.1
8,352.751993514124
9,1.0
10,45.38251793443488
11,1.0
12,45.38251793443488
13,352.751993514124
14,8.180898321771226
15,1.5351201543742539
16,6.406559599558193
17,0.13712095882453924
18,8.458027537729049
2,1, 1, 1, 0,16,45.00,60.00,Tuesday
7,-1.1
8,246.24426140340877
9,1.0
10,32.02625108222755
11,1.0
12,32.02625108222755
13,246.24426140340877
14,8.061430805896352
15,0.6739805464838148
16,6.2033060310745899
17,0.09248328557879404
18,8.36175082789183
2,1, 1, 1, 0,17, 0.00,15.00,Tuesday
7,-1.1
8,135.06463248996148
9,1.0
10,17.762198626050539
11,1.0
12,17.762198626050539
13,135.06463248996148
14,7.917606624038661
15,-0.574238487664275
16,5.94456325287905
17,-0.060622395955306277
18,8.266258151876617
2,1, 1, 1, 0,17,15.00,30.00,Tuesday
7,-1.1
8,0.0
9,0.0
10,0.0
11,0.0
12,0.0
13,0.0
14,7.723762957287401
15,-2.4101032889504476
16,5.603295443771231
17,-0.3373818195732383
18,8.158862578090452
2,1, 1, 1, 0,17,30.00,45.00,Tuesday
7,-1.1
8,0.0
9,0.0
10,0.0
11,0.0
12,0.0
13,0.0
14,7.665009197291394
15,-2.5445351313665496
16,5.525462343375921
17,-0.3130360251844877
18,8.054262172573172
2,1, 1, 1, 0,17,45.00,60.00,Tuesday
7,-1.1
8,0.0
9,0.0
10,0.0
11,0.0
12,0.0
13,0.0
14,7.590308846367086
15,-2.7330449946548085
16,5.48616106249915
17,-0.27245081748083069
18,7.9662198913771269
2,1, 1, 1, 0,18, 0.00,15.00,Tuesday
7,-1.25
8,0.0
9,0.0
10,0.0
11,0.0
12,0.0
13,0.0
14,7.527004046516637
15,-2.881216942266341
16,5.390811149548654
17,-0.4108358508236165
18,7.895193199304334
2,1, 1, 1, 0,18,15.00,30.00,Tuesday
7,-1.4
8,0.0
9,0.0
10,0.0
11,0.0
12,0.0
13,0.0
14,7.469110156008568
15,-3.033677524451408
16,5.312011663709086
17,-0.5356840960384375
18,7.835735650336499
2,1, 1, 1, 0,18,30.00,45.00,Tuesday
7,-1.5499999999999999
8,0.0
9,0.0
10,0.0
11,0.0
12,0.0
13,0.0
14,7.415326745585019
15,-3.1857155654558637
16,5.235542515498537
17,-0.6643755997530434
18,7.7824667366741109
2,1, 1, 1, 0,18,45.00,60.00,Tuesday
7,-1.7
8,0.0
9,0.0
10,0.0
11,0.0
12,0.0
13,0.0
14,7.36347918830915
15,-3.3379241181869636
16,5.161971125693185
17,-0.7922749495703556
18,7.732079869369564
2,1, 1, 1, 0,19, 0.00,15.00,Tuesday
7,-1.825
8,0.0
9,0.0
10,0.0
11,0.0
12,0.0
13,0.0
14,7.3359501102002719
15,-3.1945278949750079
16,5.069461907599759
17,-0.9743532890437336
18,7.68634492875212
2,1, 1, 1, 0,19,15.00,30.00,Tuesday
7,-1.9500000000000002
8,0.0
9,0.0
10,0.0
11,0.0
12,0.0
13,0.0
14,7.307190930599371
15,-3.1320033256526598
16,4.993421959734064
17,-1.14175059611415
18,7.647029240304567
2,1, 1, 1, 0,19,30.00,45.00,Tuesday
7,-2.075
8,0.0
9,0.0
10,0.0
11,0.0
12,0.0
13,0.0
14,7.274120463980178
15,-3.206983561281392
16,4.937373378066695
17,-1.2624395425110607
18,7.612855283167412
2,1, 1, 1, 0,19,45.00,60.00,Tuesday
7,-2.2
8,0.0
9,0.0
10,0.0
11,0.0
12,0.0
13,0.0
14,7.243748300339677
15,-3.1884859896849409
16,4.8656012054995589
17,-1.4217916972918375
18,7.580764205693683
2,1, 1, 1, 0,20, 0.00,15.00,Tuesday
7,-1.9250000000000003
8,0.0
9,0.0
10,0.0
11,0.0
12,0.0
13,0.0
14,7.229382729005331
15,-2.888253577004502
16,4.911446996497602
17,-1.2288249956479263
18,7.5515208584269699
2,1, 1, 1, 0,20,15.00,30.00,Tuesday
7,-1.6500000000000002
8,0.0
9,0.0
10,0.0
11,0.0
12,0.0
13,0.0
14,7.21553548047002
15,-2.5909140005574775
16,4.954062979866876
17,-1.0234460935270136
18,7.525759011470898
2,1, 1, 1, 0,20,30.00,45.00,Tuesday
7,-1.375
8,0.0
9,0.0
10,0.0
11,0.0
12,0.0
13,0.0
14,7.20358480618435
15,-2.2948154345264104
16,4.998428382563816
17,-0.8153805611855773
18,7.503050877125336
2,1, 1, 1, 0,20,45.00,60.00,Tuesday
7,-1.1
8,0.0
9,0.0
10,0.0
11,0.0
12,0.0
13,0.0
14,7.19329513848
15,-1.9999422917775305
16,5.045026389855366
17,-0.6048411964634397
18,7.482621839772301
2,1, 1, 1, 0,21, 0.00,15.00,Tuesday
7,-1.25
8,0.0
9,0.0
10,0.0
11,0.0
12,0.0
13,0.0
14,7.142703509237398
15,-2.2772912103095788
16,5.007153916436096
17,-0.6619578220390849
18,7.457657914560699
2,1, 1, 1, 0,21,15.00,30.00,Tuesday
7,-1.4
8,0.0
9,0.0
10,0.0
11,0.0
12,0.0
13,0.0
14,7.092824051273725
15,-2.4918579104064348
16,4.952323405783773
17,-0.7482233678722423
18,7.4234464730197209
2,1, 1, 1, 0,21,30.00,45.00,Tuesday
7,-1.5499999999999999
8,0.0
9,0.0
10,0.0
11,0.0
12,0.0
13,0.0
14,7.029903673354805
15,-2.831165020810379
16,4.909242800262291
17,-0.7944954918880285
18,7.37928650377347
2,1, 1, 1, 0,21,45.00,60.00,Tuesday
7,-1.7
8,0.0
9,0.0
10,0.0
11,0.0
12,0.0
13,0.0
14,6.961748373770112
15,-3.277304298986205
16,4.868221465506281
17,-0.8106618761865434
18,7.327548776904721
2,1, 1, 1, 0,22, 0.00,15.00,Tuesday
7,-1.5499999999999999
8,0.0
9,0.0
10,0.0
11,0.0
12,0.0
13,0.0
14,6.960687216314921
15,-2.7965779297908806
16,4.827703309680658
17,-0.811736875975896
18,7.2814637915624369
2,1, 1, 1, 0,22,15.00,30.00,Tuesday
7,-1.4
8,0.0
9,0.0
10,0.0
11,0.0
12,0.0
13,0.0
14,6.949558399671149
15,-2.4711124277168028
16,4.827964422830746
17,-0.7798654532607543
18,7.248180491158625
2,1, 1, 1, 0,22,30.00,45.00,Tuesday
7,-1.25
8,0.0
9,0.0
10,0.0
11,0.0
12,0.0
13,0.0
14,6.937478455832378
15,-2.253110433332882
16,4.835299495613299
17,-0.6926505740998437
18,7.225381901528371
2,1, 1, 1, 0,22,45.00,60.00,Tuesday
7,-1.1
8,0.0
9,0.0
10,0.0
11,0.0
12,0.0
13,0.0
14,6.928268002949823
15,-1.9743186604025012
16,4.840358362973689
17,-0.6276430831716198
18,7.207658439335319
2,1, 1, 1, 0,23, 0.00,15.00,Tuesday
7,-1.25
8,0.0
9,0.0
10,0.0
11,0.0
12,0.0
13,0.0
14,6.876825241313142
15,-2.277618697619909
16,4.738320111572932
17,-0.8975383135555717
18,7.184512388968468
2,1, 1, 1, 0,23,15.00,30.00,Tuesday
7,-1.4
8,0.0
9,0.0
10,0.0
11,0.0
12,0.0
13,0.0
14,6.827445690626646
15,-2.5823002761796336
16,4.6258829361694329
17,-1.1819438774019773
18,7.150996656399289
2,1, 1, 1, 0,23,30.00,45.00,Tuesday
7,-1.5499999999999999
8,0.0
9,0.0
10,0.0
11,0.0
12,0.0
13,0.0
14,6.773293644539647
15,-2.8876203276035947
16,4.511468771624777
17,-1.4678922299530087
18,7.108426483744752
2,1, 1, 1, 0,23,45.00,60.00,Tuesday
7,-1.7
8,0.0
9,0.0
10,0.0
11,0.0
12,0.0
13,0.0
14,6.71520311335919
15,-3.1932847365209406
16,4.3929816689365
17,-1.7558277667625362
18,7.059874854850131
2,1, 1, 1, 0,24, 0.00,15.00,Tuesday
7,-1.7
8,0.0
9,0.0
10,0.0
11,0.0
12,0.0
13,0.0
14,6.6731372581706
15,-3.247433762048506
16,4.339130685705413
17,-1.823454746439097
18,7.011054693512789
2,1, 1, 1, 0,24,15.00,30.00,Tuesday
7,-1.7
8,0.0
9,0.0
10,0.0
11,0.0
12,0.0
13,0.0
14,6.629008544498434
15,-3.3021724782549679
16,4.289787133033656
17,-1.8860190803081878
18,6.96494343844425
2,1, 1, 1, 0,24,30.00,45.00,Tuesday
7,-1.7
8,0.0
9,0.0
10,0.0
11,0.0
12,0.0
13,0.0
14,6.586030244458143
15,-3.3568016486475558
16,4.240288729575639
17,-1.9482740654874534
18,6.921451393247669
2,1, 1, 1, 0,24,45.00,60.00,Tuesday
7,-1.7
8,0.0
9,0.0
10,0.0
11,0.0
12,0.0
13,0.0
14,6.543906496754686
15,-3.4114338515142088
16,4.191734869577317
17,-2.0101158217717627
18,6.879493553473219
End of Data
 Number of Records Written=        1152
