Program Version,EnergyPlus, Version 9.5.0-de239b2e5f, YMD=2023.02.13 19:58
1,5,Environment Title[],Latitude[deg],Longitude[deg],Time Zone[],Elevation[m]
2,8,Day of Simulation[],Month[],Day of Month[],DST Indicator[1=yes 0=no],Hour[],StartMinute[],EndMinute[],DayType
3,5,Cumulative Day of Simulation[],Month[],Day of Month[],DST Indicator[1=yes 0=no],DayType  ! When Daily Report Variables Requested
4,2,Cumulative Days of Simulation[],Month[]  ! When Monthly Report Variables Requested
5,1,Cumulative Days of Simulation[] ! When Run Period Report Variables Requested
6,1,Calendar Year of Simulation[] ! When Annual Report Variables Requested
7,1,Environment,Site Outdoor Air Drybulb Temperature [C] !TimeStep
8,1,ZONE ONE,Zone Windows Total Transmitted Solar Radiation Rate [W] !TimeStep
9,1,ZN001:WALL001,Surface Outside Face Sunlit Fraction [] !TimeStep
10,1,ZN001:WALL001,Surface Outside Face Incident Solar Radiation Rate per Area [W/m2] !TimeStep
11,1,ZN001:WALL001:WIN001,Surface Outside Face Sunlit Fraction [] !TimeStep
12,1,ZN001:WALL001:WIN001,Surface Outside Face Incident Solar Radiation Rate per Area [W/m2] !TimeStep
13,1,ZN001:WALL001:WIN001,Surface Window Transmitted Solar Radiation Rate [W] !TimeStep
14,1,ZN001:WALL001,Surface Inside Face Temperature [C] !TimeStep
15,1,ZN001:WALL001,Surface Outside Face Temperature [C] !TimeStep
16,1,ZN001:WALL001:WIN001,Surface Inside Face Temperature [C] !TimeStep
17,1,ZN001:WALL001:WIN001,Surface Outside Face Temperature [C] !TimeStep
18,1,ZONE ONE,Zone Mean Air Temperature [C] !TimeStep
End of Data Dictionary
1,RUN PERIOD 1,  41.98, -87.92,  -6.00, 201.00
2,1, 1, 1, 0, 1, 0.00,15.00,Tuesday
7,-4.324999999999999
8,0.0
9,0.0
10,0.0
11,0.0
12,0.0
13,0.0
14,-0.9179915149977502
15,-6.021262968051651
16,-2.637516223476382
17,-5.08094375962753
18,-0.6436956422122142
2,1, 1, 1, 0, 1,15.00,30.00,Tuesday
7,-6.949999999999999
8,0.0
9,0.0
10,0.0
11,0.0
12,0.0
13,0.0
14,-1.094730684839914
15,-8.489076740072058
16,-3.5199144280451835
17,-6.97989699939626
18,-0.7285690890029024
2,1, 1, 1, 0, 1,30.00,45.00,Tuesday
7,-9.575
8,0.0
9,0.0
10,0.0
11,0.0
12,0.0
13,0.0
14,-1.2944706688299979
15,-10.966200635653215
16,-4.400785478954845
17,-8.885020079845618
18,-0.8516244578371341
2,1, 1, 1, 0, 1,45.00,60.00,Tuesday
7,-12.2
8,0.0
9,0.0
10,0.0
11,0.0
12,0.0
13,0.0
14,-1.511701114951983
15,-13.449812683526148
16,-5.29354816731211
17,-10.799659704723127
18,-1.0025087494374754
2,1, 1, 1, 0, 2, 0.00,15.00,Tuesday
7,-12.075
8,0.0
9,0.0
10,0.0
11,0.0
12,0.0
13,0.0
14,-1.565260601492125
15,-13.25202224806312
16,-5.308194705952474
17,-10.688334006527441
18,-1.1382400732588163
2,1, 1, 1, 0, 2,15.00,30.00,Tuesday
7,-11.95
8,0.0
9,0.0
10,0.0
11,0.0
12,0.0
13,0.0
14,-1.635085841523839
15,-13.074709778971876
16,-5.302433737844922
17,-10.563863928688648
18,-1.2384554091256093
2,1, 1, 1, 0, 2,30.00,45.00,Tuesday
7,-11.825
8,0.0
9,0.0
10,0.0
11,0.0
12,0.0
13,0.0
14,-1.685952227846021
15,-12.896042002347672
16,-5.2914801585448
17,-10.437575316145399
18,-1.3077651978270804
2,1, 1, 1, 0, 2,45.00,60.00,Tuesday
7,-11.7
8,0.0
9,0.0
10,0.0
11,0.0
12,0.0
13,0.0
14,-1.7240475317630216
15,-12.717425247377797
16,-5.268055109221791
17,-10.30646886054194
18,-1.3579057645687676
2,1, 1, 1, 0, 3, 0.00,15.00,Tuesday
7,-11.549999999999999
8,0.0
9,0.0
10,0.0
11,0.0
12,0.0
13,0.0
14,-1.7598481139328593
15,-12.594256461197743
16,-5.239267816956215
17,-10.17807233315375
18,-1.3989662457832786
2,1, 1, 1, 0, 3,15.00,30.00,Tuesday
7,-11.399999999999999
8,0.0
9,0.0
10,0.0
11,0.0
12,0.0
13,0.0
14,-1.7915967957956669
15,-12.472578835656844
16,-5.207942974799721
17,-10.049966140225138
18,-1.436333181565686
2,1, 1, 1, 0, 3,30.00,45.00,Tuesday
7,-11.25
8,0.0
9,0.0
10,0.0
11,0.0
12,0.0
13,0.0
14,-1.821968547781796
15,-12.352578157449767
16,-5.174696542973152
17,-9.921844365616153
18,-1.471926864420442
2,1, 1, 1, 0, 3,45.00,60.00,Tuesday
7,-11.1
8,0.0
9,0.0
10,0.0
11,0.0
12,0.0
13,0.0
14,-1.8515778601984352
15,-12.234316293531377
16,-5.140772317509345
17,-9.794152592431943
18,-1.5062536474300686
2,1, 1, 1, 0, 4, 0.00,15.00,Tuesday
7,-11.1
8,0.0
9,0.0
10,0.0
11,0.0
12,0.0
13,0.0
14,-1.8849474853734214
15,-12.201806118514782
16,-5.18152395858948
17,-9.81579296747384
18,-1.5406085279926736
2,1, 1, 1, 0, 4,15.00,30.00,Tuesday
7,-11.1
8,0.0
9,0.0
10,0.0
11,0.0
12,0.0
13,0.0
14,-1.9179546046036605
15,-12.170566241136127
16,-5.2155889105498549
17,-9.843697855011215
18,-1.5755136719645986
2,1, 1, 1, 0, 4,30.00,45.00,Tuesday
7,-11.1
8,0.0
9,0.0
10,0.0
11,0.0
12,0.0
13,0.0
14,-1.9512136747736498
15,-12.141053378478939
16,-5.248483003660795
17,-9.871862858134819
18,-1.6108636690261494
2,1, 1, 1, 0, 4,45.00,60.00,Tuesday
7,-11.1
8,0.0
9,0.0
10,0.0
11,0.0
12,0.0
13,0.0
14,-1.9846364689114924
15,-12.11312701471633
16,-5.281041758409231
17,-9.899429981909407
18,-1.6464070160772025
2,1, 1, 1, 0, 5, 0.00,15.00,Tuesday
7,-10.975
8,0.0
9,0.0
10,0.0
11,0.0
12,0.0
13,0.0
14,-2.011038420088309
15,-11.990728194719115
16,-5.26022283554471
17,-9.821867134849754
18,-1.6806532589285133
2,1, 1, 1, 0, 5,15.00,30.00,Tuesday
7,-10.85
8,0.0
9,0.0
10,0.0
11,0.0
12,0.0
13,0.0
14,-2.0381715860275357
15,-11.868476364386556
16,-5.2416360940407
17,-9.73718512986676
18,-1.7130590313495975
2,1, 1, 1, 0, 5,30.00,45.00,Tuesday
7,-10.725
8,0.0
9,0.0
10,0.0
11,0.0
12,0.0
13,0.0
14,-2.0641765750003406
15,-11.746161190479145
16,-5.22323331248333
17,-9.651509078964296
18,-1.743929952381162
2,1, 1, 1, 0, 5,45.00,60.00,Tuesday
7,-10.6
8,0.0
9,0.0
10,0.0
11,0.0
12,0.0
13,0.0
14,-2.0892926404000948
15,-11.623858344948543
16,-5.204137088028233
17,-9.565426492992799
18,-1.773718024433947
2,1, 1, 1, 0, 6, 0.00,15.00,Tuesday
7,-10.6
8,0.0
9,0.0
10,0.0
11,0.0
12,0.0
13,0.0
14,-2.123131168421696
15,-11.624576264730582
16,-5.225634700543537
17,-9.568884294796533
18,-1.8042162659305259
2,1, 1, 1, 0, 6,15.00,30.00,Tuesday
7,-10.6
8,0.0
9,0.0
10,0.0
11,0.0
12,0.0
13,0.0
14,-2.1554386706610106
15,-11.625142887247855
16,-5.249104651670336
17,-9.576042071768143
18,-1.8362548742564593
2,1, 1, 1, 0, 6,30.00,45.00,Tuesday
7,-10.6
8,0.0
9,0.0
10,0.0
11,0.0
12,0.0
13,0.0
14,-2.188431186708304
15,-11.62579516003273
16,-5.272419959416197
17,-9.583974730326588
18,-1.8695632166136498
2,1, 1, 1, 0, 6,45.00,60.00,Tuesday
7,-10.6
8,0.0
9,0.0
10,0.0
11,0.0
12,0.0
13,0.0
14,-2.2218185635021219
15,-11.626444027883956
16,-5.295993203318517
17,-9.592338484391405
18,-1.9035867413712889
2,1, 1, 1, 0, 7, 0.00,15.00,Tuesday
7,-10.6
8,0.0
9,0.0
10,0.0
11,0.0
12,0.0
13,0.0
14,-2.2529873429970048
15,-11.59966484247516
16,-5.330214180555458
17,-9.614102256546574
18,-1.9376966025965124
2,1, 1, 1, 0, 7,15.00,30.00,Tuesday
7,-10.6
8,0.0
9,0.0
10,0.0
11,0.0
12,0.0
13,0.0
14,-2.28437907468644
15,-11.574281606896339
16,-5.359845117414807
17,-9.636465118208435
18,-1.9714497318755065
2,1, 1, 1, 0, 7,30.00,45.00,Tuesday
7,-10.6
8,0.0
9,0.0
10,0.0
11,0.0
12,0.0
13,0.0
14,-2.315583156015489
15,-11.550179237619926
16,-5.388824324570294
17,-9.658572032766358
18,-2.0047744618048517
2,1, 1, 1, 0, 7,45.00,60.00,Tuesday
7,-10.6
8,0.0
9,0.0
10,0.0
11,0.0
12,0.0
13,0.0
14,-2.3465388891526768
15,-11.527282509682431
16,-5.417305713562087
17,-9.680037438275236
18,-2.037748396625227
2,1, 1, 1, 0, 8, 0.00,15.00,Tuesday
7,-10.45
8,0.0
9,0.0
10,0.0
11,0.0
12,0.0
13,0.0
14,-2.378396905565907
15,-11.480522706801477
16,-5.4104326317821009
17,-9.64714664689211
18,-2.070600908471144
2,1, 1, 1, 0, 8,15.00,30.00,Tuesday
7,-10.3
8,48.37781979229514
9,1.0
10,22.819555959623899
11,1.0
12,22.819555959623899
13,48.37781979229514
14,-2.30858589202016
15,-9.807960469811592
16,-5.007406591284052
17,-9.24114715993602
18,-2.090057198586183
2,1, 1, 1, 0, 8,30.00,45.00,Tuesday
7,-10.15
8,237.88593593245407
9,1.0
10,109.75755355442667
11,1.0
12,109.75755355442667
13,237.88593593245407
14,-1.9623352286975513
15,-3.455422720135717
16,-3.3945899456884947
17,-7.8265285172273029
18,-2.060340619471637
2,1, 1, 1, 0, 8,45.00,60.00,Tuesday
7,-10.0
8,433.6486066510219
9,1.0
10,195.8764694434918
11,1.0
12,195.8764694434918
13,433.6486066510219
14,-1.5536810435997933
15,3.034433533308292
16,-1.6365289607308
17,-6.370013323581702
18,-1.976694639136044
2,1, 1, 1, 0, 9, 0.00,15.00,Tuesday
7,-9.725
8,629.8133241912386
9,1.0
10,278.97248314719988
11,1.0
12,278.97248314719988
13,629.8133241912386
14,-1.2358866230707713
15,8.22682740264187
16,-0.039159110553214308
17,-5.097814355634682
18,-1.8511838886342345
2,1, 1, 1, 0, 9,15.00,30.00,Tuesday
7,-9.45
8,837.7116854113558
9,1.0
10,364.91995730569456
11,1.0
12,364.91995730569456
13,837.7116854113558
14,-0.8976788127009852
15,13.308406908251183
16,1.5329437371012774
17,-3.8339117399086719
18,-1.690092159952516
2,1, 1, 1, 0, 9,30.00,45.00,Tuesday
7,-9.175
8,976.7624830576193
9,1.0
10,420.35879993239237
11,1.0
12,420.35879993239237
13,976.7624830576193
14,-0.6715421467430871
15,16.069684578773744
16,2.5526440669249839
17,-3.0435986555344245
18,-1.5107234665547387
2,1, 1, 1, 0, 9,45.00,60.00,Tuesday
7,-8.9
8,1121.6146084510393
9,1.0
10,478.00138373643099
11,1.0
12,478.00138373643099
13,1121.6146084510393
14,-0.40463230946255776
15,19.065937959528008
16,3.587649441943938
17,-2.2348455830491504
18,-1.3205900985714623
2,1, 1, 1, 0,10, 0.00,15.00,Tuesday
7,-8.350000000000002
8,1270.0269553388162
9,1.0
10,536.9185644770597
11,1.0
12,536.9185644770597
13,1270.0269553388162
14,-0.20051152562207845
15,20.189339565669788
16,4.626877176781704
17,-1.4488474736340323
18,-1.1155761491480885
2,1, 1, 1, 0,10,15.00,30.00,Tuesday
7,-7.800000000000001
8,1423.952062283466
9,1.0
10,598.0969199229219
11,1.0
12,598.0969199229219
13,1423.952062283466
14,0.02601325248673439
15,21.44663693953351
16,5.681342669708897
17,-0.667617549708666
18,-0.898454146737949
2,1, 1, 1, 0,10,30.00,45.00,Tuesday
7,-7.25
8,1526.2141510839877
9,1.0
10,637.6133352894237
11,1.0
12,637.6133352894237
13,1526.2141510839877
14,0.18768409606281756
15,21.510297571575039
16,6.401585610261748
17,-0.15310439896762774
18,-0.68297077840864
2,1, 1, 1, 0,10,45.00,60.00,Tuesday
7,-6.7
8,1627.1474770805795
9,1.0
10,676.6412284283772
11,1.0
12,676.6412284283772
13,1627.1474770805795
14,0.36273723116882547
15,21.673617202355758
16,7.100986282557983
17,0.35477993001524057
18,-0.47701862472887548
2,1, 1, 1, 0,11, 0.00,15.00,Tuesday
7,-6.275
8,1726.3559791399826
9,1.0
10,715.0112779846514
11,1.0
12,715.0112779846514
13,1726.3559791399826
14,0.6157552282727298
15,23.770553675843865
16,7.893023191177235
17,1.1311853362016109
18,-0.27559385142674039
2,1, 1, 1, 0,11,15.00,30.00,Tuesday
7,-5.85
8,1823.2698116145473
9,1.0
10,752.5077794605232
11,1.0
12,752.5077794605232
13,1823.2698116145473
14,0.853591794819745
15,25.705246395733505
16,8.666993939759437
17,1.8874125583214437
18,-0.07340185647988255
2,1, 1, 1, 0,11,30.00,45.00,Tuesday
7,-5.425
8,1796.527582854471
9,1.0
10,742.5988714321785
11,1.0
12,742.5988714321785
13,1796.527582854471
14,0.9797687507778249
15,25.557031147193773
16,8.758190201850823
17,2.130471229695729
18,0.11537142771471905
2,1, 1, 1, 0,11,45.00,60.00,Tuesday
7,-5.0
8,1757.2302902542625
9,1.0
10,727.8169025450712
11,1.0
12,727.8169025450712
13,1757.2302902542625
14,1.1032325739760878
15,25.32715051839007
16,8.76391033157563
17,2.330060006495785
18,0.2810722470698082
2,1, 1, 1, 0,12, 0.00,15.00,Tuesday
7,-4.575
8,1688.8915154248735
9,1.0
10,700.3759009170325
11,1.0
12,700.3759009170325
13,1688.8915154248735
14,1.1832759043662254
15,24.584031993650929
16,8.602971129699086
17,2.4389946655172709
18,0.4196758705935659
2,1, 1, 1, 0,12,15.00,30.00,Tuesday
7,-4.15
8,1637.402928242804
9,1.0
10,681.6705029034473
11,1.0
12,681.6705029034473
13,1637.402928242804
14,1.2795220636573439
15,24.2530067039213
16,8.548222110066604
17,2.63259885052787
18,0.537620323768258
2,1, 1, 1, 0,12,30.00,45.00,Tuesday
7,-3.7249999999999998
8,1436.3325328204419
9,1.0
10,602.01865277251
11,1.0
12,602.01865277251
13,1436.3325328204419
14,1.1919690809492066
15,21.224590930775304
16,7.623434558161364
17,2.1997915981352209
18,0.6193054119518552
2,1, 1, 1, 0,12,45.00,60.00,Tuesday
7,-3.3
8,1172.3264399988607
9,1.0
10,493.55004396206007
11,1.0
12,493.55004396206007
13,1172.3264399988607
14,1.022209726121677
15,17.045575898595844
16,6.228044553478242
17,1.4452193926829296
18,0.6502609806285311
2,1, 1, 1, 0,13, 0.00,15.00,Tuesday
7,-3.0249999999999996
8,965.8676445104285
9,1.0
10,412.335026418112
11,1.0
12,412.335026418112
13,965.8676445104285
14,0.905736408438912
15,14.200132884503879
16,5.157409452649631
17,0.9147583892122384
18,0.6406956350750543
2,1, 1, 1, 0,13,15.00,30.00,Tuesday
7,-2.75
8,705.6249663298465
9,1.0
10,305.94037763660148
11,1.0
12,305.94037763660148
13,705.6249663298465
14,0.6811331104429137
15,10.026417650736472
16,3.668438864372206
17,0.07925451084878432
18,0.5948204170076377
2,1, 1, 1, 0,13,30.00,45.00,Tuesday
7,-2.475
8,643.2935934547763
9,1.0
10,281.0763483922329
11,1.0
12,281.0763483922329
13,643.2935934547763
14,0.6698688271085782
15,9.512384034168106
16,3.39276352189097
17,0.11721293248467646
18,0.5413423408076382
2,1, 1, 1, 0,13,45.00,60.00,Tuesday
7,-2.2
8,582.2666563732777
9,1.0
10,256.7721209415886
11,1.0
12,256.7721209415886
13,582.2666563732777
14,0.6433095134651675
15,8.904324683579027
16,3.1487695825344987
17,0.16943197932721433
18,0.49853365201414809
2,1, 1, 1, 0,14, 0.00,15.00,Tuesday
7,-1.9250000000000003
8,475.0797112458438
9,1.0
10,210.73276284570657
11,1.0
12,210.73276284570657
13,475.0797112458438
14,0.5562368226223461
15,7.355198124200294
16,2.5471164190128094
17,-0.05314569369875244
18,0.4623557135117178
2,1, 1, 1, 0,14,15.00,30.00,Tuesday
7,-1.6500000000000002
8,421.0810450664391
9,1.0
10,189.38488290342594
11,1.0
12,189.38488290342594
13,421.0810450664391
14,0.5418347585919769
15,6.947157260934323
16,2.3128643601900196
17,-0.01858486469888021
18,0.4325264060618139
2,1, 1, 1, 0,14,30.00,45.00,Tuesday
7,-1.375
8,401.774828289982
9,1.0
10,179.3940297802914
11,1.0
12,179.3940297802914
13,401.774828289982
14,0.5498697323235808
15,7.065303095601919
16,2.285828989831998
17,0.1602001255870391
18,0.4105196306668138
2,1, 1, 1, 0,14,45.00,60.00,Tuesday
7,-1.1
8,382.12108825797437
9,1.0
10,169.43349014176136
11,1.0
12,169.43349014176136
13,382.12108825797437
14,0.5559470058606355
15,7.161343658943813
16,2.255690528185937
17,0.33472421605830507
18,0.39650035388995799
2,1, 1, 1, 0,15, 0.00,15.00,Tuesday
7,-1.1
8,401.91385134140628
9,1.0
10,178.15692317953907
11,1.0
12,178.15692317953907
13,401.91385134140628
14,0.6006269851372472
15,7.9740287260835569
16,2.4155452826033185
17,0.48625503919663518
18,0.39218095915235876
2,1, 1, 1, 0,15,15.00,30.00,Tuesday
7,-1.1
8,377.40659100319177
9,1.0
10,166.40516310952945
11,1.0
12,166.40516310952945
13,377.40659100319177
14,0.5740886308082553
15,7.61024665363782
16,2.2470925048454548
17,0.38366538823879639
18,0.3912471428671925
2,1, 1, 1, 0,15,30.00,45.00,Tuesday
7,-1.1
8,317.75596371098598
9,1.0
10,140.8967369711617
11,1.0
12,140.8967369711617
13,317.75596371098598
14,0.49277702388836067
15,6.401590597491361
16,1.8172324465238035
17,0.06678729802018779
18,0.384485728435037
2,1, 1, 1, 0,15,45.00,60.00,Tuesday
7,-1.1
8,261.0934712331853
9,1.0
10,116.57355796743004
11,1.0
12,116.57355796743004
13,261.0934712331853
14,0.4141175977443675
15,5.188846616314852
16,1.3837578401314659
17,-0.2575729658168484
18,0.36464742860488427
2,1, 1, 1, 0,16, 0.00,15.00,Tuesday
7,-1.1
8,206.91088787927186
9,1.0
10,93.14939272689483
11,1.0
12,93.14939272689483
13,206.91088787927186
14,0.336033426814921
15,4.127158992366143
16,0.9839785433080124
17,-0.5214468719090633
18,0.33205640364544999
2,1, 1, 1, 0,16,15.00,30.00,Tuesday
7,-1.1
8,128.24394957662509
9,1.0
10,57.94047897402063
11,1.0
12,57.94047897402063
13,128.24394957662509
14,0.17359485454159627
15,1.9823499767373308
16,0.31659781059465788
17,-1.0112802855881569
18,0.2847538541304085
2,1, 1, 1, 0,16,30.00,45.00,Tuesday
7,-1.1
8,99.28426277067597
9,1.0
10,45.38251793443488
11,1.0
12,45.38251793443488
13,99.28426277067597
14,0.12945169035918895
15,1.3716488436020549
16,0.0517552499788394
17,-1.1759275996811312
18,0.22995476153810724
2,1, 1, 1, 0,16,45.00,60.00,Tuesday
7,-1.1
8,69.22193753677786
9,1.0
10,32.02625108222755
11,1.0
12,32.02625108222755
13,69.22193753677786
14,0.04871458913654296
15,0.49315225662266079
16,-0.21398300611554078
17,-1.3656142247963317
18,0.17287951530937385
2,1, 1, 1, 0,17, 0.00,15.00,Tuesday
7,-1.1
8,37.939612009912227
9,1.0
10,17.762198626050539
11,1.0
12,17.762198626050539
13,37.939612009912227
14,-0.060944304006581139
15,-0.7771702996157861
16,-0.5480126279292108
17,-1.672915679208586
18,0.11080820599852619
2,1, 1, 1, 0,17,15.00,30.00,Tuesday
7,-1.1
8,0.0
9,0.0
10,0.0
11,0.0
12,0.0
13,0.0
14,-0.21787931127699576
15,-2.622181377310282
16,-0.943638597379902
17,-2.0244031280660126
18,0.03388397823123306
2,1, 1, 1, 0,17,30.00,45.00,Tuesday
7,-1.1
8,0.0
9,0.0
10,0.0
11,0.0
12,0.0
13,0.0
14,-0.2531105723116579
15,-2.7654804643372117
16,-1.025637335381134
17,-2.0977939042999198
18,-0.04773969969590254
2,1, 1, 1, 0,17,45.00,60.00,Tuesday
7,-1.1
8,0.0
9,0.0
10,0.0
11,0.0
12,0.0
13,0.0
14,-0.3060381282784404
15,-2.9715738207931889
16,-1.0843861516448215
17,-2.1704336539088446
18,-0.12244522543187114
2,1, 1, 1, 0,18, 0.00,15.00,Tuesday
7,-1.25
8,0.0
9,0.0
10,0.0
11,0.0
12,0.0
13,0.0
14,-0.3490471908984692
15,-3.117522278651454
16,-1.1696539656076084
17,-2.298668049547473
18,-0.18404524276879287
2,1, 1, 1, 0,18,15.00,30.00,Tuesday
7,-1.4
8,0.0
9,0.0
10,0.0
11,0.0
12,0.0
13,0.0
14,-0.38773989955958257
15,-3.2699685750866696
16,-1.2450833929104875
17,-2.4179112064680909
18,-0.23310661123124055
2,1, 1, 1, 0,18,30.00,45.00,Tuesday
7,-1.5499999999999999
8,0.0
9,0.0
10,0.0
11,0.0
12,0.0
13,0.0
14,-0.4233344954949717
15,-3.4216984634980438
16,-1.3173065899384824
17,-2.5360316423617634
18,-0.27315022028553267
2,1, 1, 1, 0,18,45.00,60.00,Tuesday
7,-1.7
8,0.0
9,0.0
10,0.0
11,0.0
12,0.0
13,0.0
14,-0.456152623538911
15,-3.5734736422019575
16,-1.3851938229332746
17,-2.6469249093088367
18,-0.3076061739563204
2,1, 1, 1, 0,19, 0.00,15.00,Tuesday
7,-1.825
8,0.0
9,0.0
10,0.0
11,0.0
12,0.0
13,0.0
14,-0.45853274321041495
15,-3.403025931390358
16,-1.4058974162427376
17,-2.665250582883118
18,-0.3348249118196432
2,1, 1, 1, 0,19,15.00,30.00,Tuesday
7,-1.9500000000000002
8,0.0
9,0.0
10,0.0
11,0.0
12,0.0
13,0.0
14,-0.46149778151492745
15,-3.3167116754624037
16,-1.4266550545388555
17,-2.694311726578917
18,-0.3535834273034831
2,1, 1, 1, 0,19,30.00,45.00,Tuesday
7,-2.075
8,0.0
9,0.0
10,0.0
11,0.0
12,0.0
13,0.0
14,-0.46950763691338556
15,-3.385199596716989
16,-1.467209046789776
17,-2.769065529283864
18,-0.365835826743697
2,1, 1, 1, 0,19,45.00,60.00,Tuesday
7,-2.2
8,0.0
9,0.0
10,0.0
11,0.0
12,0.0
13,0.0
14,-0.47405718970106927
15,-3.345583021377653
16,-1.489455871586415
17,-2.814687751003021
18,-0.37455972852520416
2,1, 1, 1, 0,20, 0.00,15.00,Tuesday
7,-1.9250000000000003
8,0.0
9,0.0
10,0.0
11,0.0
12,0.0
13,0.0
14,-0.4638287045327029
15,-3.0399473636916465
16,-1.382877249975195
17,-2.6117079705583707
18,-0.37979241206837496
2,1, 1, 1, 0,20,15.00,30.00,Tuesday
7,-1.6500000000000002
8,0.0
9,0.0
10,0.0
11,0.0
12,0.0
13,0.0
14,-0.4505802755500264
15,-2.7376611983136538
16,-1.2885201339744299
17,-2.382782487700638
18,-0.3814020047830271
2,1, 1, 1, 0,20,30.00,45.00,Tuesday
7,-1.375
8,0.0
9,0.0
10,0.0
11,0.0
12,0.0
13,0.0
14,-0.4354614505549309
15,-2.436970193417591
16,-1.1866601684797047
17,-2.159273318922658
18,-0.3797751929571621
2,1, 1, 1, 0,20,45.00,60.00,Tuesday
7,-1.1
8,0.0
9,0.0
10,0.0
11,0.0
12,0.0
13,0.0
14,-0.41731983078349008
15,-2.1377079712774145
16,-1.081931670489439
17,-1.9338820378574724
18,-0.3754832186593822
2,1, 1, 1, 0,21, 0.00,15.00,Tuesday
7,-1.25
8,0.0
9,0.0
10,0.0
11,0.0
12,0.0
13,0.0
14,-0.44942782218420976
15,-2.4373975321007914
16,-1.168976949075386
17,-2.092972455028246
18,-0.37476751258277127
2,1, 1, 1, 0,21,15.00,30.00,Tuesday
7,-1.4
8,0.0
9,0.0
10,0.0
11,0.0
12,0.0
13,0.0
14,-0.4838702815595318
15,-2.663380726068692
16,-1.2400617110869235
17,-2.2310627570059298
18,-0.3829309559318141
2,1, 1, 1, 0,21,30.00,45.00,Tuesday
7,-1.5499999999999999
8,0.0
9,0.0
10,0.0
11,0.0
12,0.0
13,0.0
14,-0.5313543055616994
15,-3.031103488746347
16,-1.3353790049303598
17,-2.4104839839052376
18,-0.40222668543852838
2,1, 1, 1, 0,21,45.00,60.00,Tuesday
7,-1.7
8,0.0
9,0.0
10,0.0
11,0.0
12,0.0
13,0.0
14,-0.583673099410302
15,-3.509516285433759
16,-1.442843394075794
17,-2.6203449815761816
18,-0.43145757432281375
2,1, 1, 1, 0,22, 0.00,15.00,Tuesday
7,-1.5499999999999999
8,0.0
9,0.0
10,0.0
11,0.0
12,0.0
13,0.0
14,-0.5549507742181085
15,-2.990172843957413
16,-1.361343950924038
17,-2.432529260687602
18,-0.4563016417521349
2,1, 1, 1, 0,22,15.00,30.00,Tuesday
7,-1.4
8,0.0
9,0.0
10,0.0
11,0.0
12,0.0
13,0.0
14,-0.5359882801511976
15,-2.638564514571855
16,-1.2769676789761775
17,-2.252936081452731
18,-0.4686034636787716
2,1, 1, 1, 0,22,30.00,45.00,Tuesday
7,-1.25
8,0.0
9,0.0
10,0.0
11,0.0
12,0.0
13,0.0
14,-0.5193867803010482
15,-2.4087336716422786
16,-1.2111775515881505
17,-2.1107475833250648
18,-0.4698030490127715
2,1, 1, 1, 0,22,45.00,60.00,Tuesday
7,-1.1
8,0.0
9,0.0
10,0.0
11,0.0
12,0.0
13,0.0
14,-0.498953127995924
15,-2.1086952745052187
16,-1.1228411850239582
17,-1.9340348104584564
18,-0.46439738042589909
2,1, 1, 1, 0,23, 0.00,15.00,Tuesday
7,-1.25
8,0.0
9,0.0
10,0.0
11,0.0
12,0.0
13,0.0
14,-0.5323622077020964
15,-2.4132246679902984
16,-1.2501531500719239
17,-2.17740459498458
18,-0.4619797464319052
2,1, 1, 1, 0,23,15.00,30.00,Tuesday
7,-1.4
8,0.0
9,0.0
10,0.0
11,0.0
12,0.0
13,0.0
14,-0.5634211933077609
15,-2.717651029499209
16,-1.3808151564487617
17,-2.4417060745552705
18,-0.4686765701098179
2,1, 1, 1, 0,23,30.00,45.00,Tuesday
7,-1.5499999999999999
8,0.0
9,0.0
10,0.0
11,0.0
12,0.0
13,0.0
14,-0.5992341264886315
15,-3.0227139123839028
16,-1.51115682880652
17,-2.7064828644233787
18,-0.4850123804211762
2,1, 1, 1, 0,23,45.00,60.00,Tuesday
7,-1.7
8,0.0
9,0.0
10,0.0
11,0.0
12,0.0
13,0.0
14,-0.6372392128030555
15,-3.3280558796716677
16,-1.644122293295709
17,-2.972218348533545
18,-0.5089017051766106
2,1, 1, 1, 0,24, 0.00,15.00,Tuesday
7,-1.7
8,0.0
9,0.0
10,0.0
11,0.0
12,0.0
13,0.0
14,-0.6558480546717405
15,-3.381497420400766
16,-1.6811769933295864
17,-3.028363274075332
18,-0.5347419235698081
2,1, 1, 1, 0,24,15.00,30.00,Tuesday
7,-1.7
8,0.0
9,0.0
10,0.0
11,0.0
12,0.0
13,0.0
14,-0.6775743539381289
15,-3.4358975809219878
16,-1.71623909002858
17,-3.0824266711085217
18,-0.5590333668232519
2,1, 1, 1, 0,24,30.00,45.00,Tuesday
7,-1.7
8,0.0
9,0.0
10,0.0
11,0.0
12,0.0
13,0.0
14,-0.6988545157647876
15,-3.4901589833966084
16,-1.7520070129973533
17,-3.136670989328877
18,-0.5811976980431732
2,1, 1, 1, 0,24,45.00,60.00,Tuesday
7,-1.7
8,0.0
9,0.0
10,0.0
11,0.0
12,0.0
13,0.0
14,-0.719623356854391
15,-3.544414634899839
16,-1.7873157732474284
17,-3.1906587934237224
18,-0.601882627850414
End of Data
 Number of Records Written=        1152
