Program Version,EnergyPlus, Version 9.5.0-de239b2e5f, YMD=2023.02.13 19:58
1,5,Environment Title[],Latitude[deg],Longitude[deg],Time Zone[],Elevation[m]
2,8,Day of Simulation[],Month[],Day of Month[],DST Indicator[1=yes 0=no],Hour[],StartMinute[],EndMinute[],DayType
3,5,Cumulative Day of Simulation[],Month[],Day of Month[],DST Indicator[1=yes 0=no],DayType  ! When Daily Report Variables Requested
4,2,Cumulative Days of Simulation[],Month[]  ! When Monthly Report Variables Requested
5,1,Cumulative Days of Simulation[] ! When Run Period Report Variables Requested
6,1,Calendar Year of Simulation[] ! When Annual Report Variables Requested
7,1,Environment,Site Outdoor Air Drybulb Temperature [C] !TimeStep
8,1,ZONE ONE,Zone Windows Total Transmitted Solar Radiation Rate [W] !TimeStep
9,1,ZN001:WALL001,Surface Outside Face Sunlit Fraction [] !TimeStep
10,1,ZN001:WALL001,Surface Outside Face Incident Solar Radiation Rate per Area [W/m2] !TimeStep
11,1,ZN001:WALL001:WIN001,Surface Outside Face Sunlit Fraction [] !TimeStep
12,1,ZN001:WALL001:WIN001,Surface Outside Face Incident Solar Radiation Rate per Area [W/m2] !TimeStep
13,1,ZN001:WALL001:WIN001,Surface Window Transmitted Solar Radiation Rate [W] !TimeStep
14,1,ZN001:WALL001,Surface Inside Face Temperature [C] !TimeStep
15,1,ZN001:WALL001,Surface Outside Face Temperature [C] !TimeStep
16,1,ZN001:WALL001:WIN001,Surface Inside Face Temperature [C] !TimeStep
17,1,ZN001:WALL001:WIN001,Surface Outside Face Temperature [C] !TimeStep
18,1,ZONE ONE,Zone Mean Air Temperature [C] !TimeStep
End of Data Dictionary
1,RUN PERIOD 1,  41.98, -87.92,  -6.00, 201.00
2,1, 1, 1, 0, 1, 0.00,15.00,Tuesday
7,-4.324999999999999
8,0.0
9,0.0
10,0.0
11,0.0
12,0.0
13,0.0
14,2.5351755302046494
15,-5.957758587749967
16,1.406969940501881
17,-5.400595333301169
18,2.915902921147529
2,1, 1, 1, 0, 1,15.00,30.00,Tuesday
7,-6.949999999999999
8,0.0
9,0.0
10,0.0
11,0.0
12,0.0
13,0.0
14,2.3627811084465355
15,-8.42559829318471
16,0.9404675490428076
17,-7.601727541250511
18,2.8348351923212657
2,1, 1, 1, 0, 1,30.00,45.00,Tuesday
7,-9.575
8,0.0
9,0.0
10,0.0
11,0.0
12,0.0
13,0.0
14,2.172172165851077
15,-10.901567503205487
16,0.4710337090656367
17,-9.809967486189976
18,2.7231560517140216
2,1, 1, 1, 0, 1,45.00,60.00,Tuesday
7,-12.2
8,0.0
9,0.0
10,0.0
11,0.0
12,0.0
13,0.0
14,1.966877751963058
15,-13.384102135262177
16,-0.012317149860109567
17,-12.026316964946148
18,2.5894570095746847
2,1, 1, 1, 0, 2, 0.00,15.00,Tuesday
7,-12.075
8,0.0
9,0.0
10,0.0
11,0.0
12,0.0
13,0.0
14,1.9136784176469009
15,-13.18548314602009
16,-0.09551428636353876
17,-11.87392024800522
18,2.467740724868502
2,1, 1, 1, 0, 2,15.00,30.00,Tuesday
7,-11.95
8,0.0
9,0.0
10,0.0
11,0.0
12,0.0
13,0.0
14,1.845752957734702
15,-13.008144891668304
16,-0.12978110307506086
17,-11.711243536541247
18,2.3750015041112118
2,1, 1, 1, 0, 2,30.00,45.00,Tuesday
7,-11.825
8,0.0
9,0.0
10,0.0
11,0.0
12,0.0
13,0.0
14,1.7935564178275512
15,-12.829662138547164
16,-0.1601781322356146
17,-11.548396528818671
18,2.307440756082033
2,1, 1, 1, 0, 2,45.00,60.00,Tuesday
7,-11.7
8,0.0
9,0.0
10,0.0
11,0.0
12,0.0
13,0.0
14,1.751985887795035
15,-12.65124176166957
16,-0.178318216625712
17,-11.383910225775367
18,2.255330358144482
2,1, 1, 1, 0, 3, 0.00,15.00,Tuesday
7,-11.549999999999999
8,0.0
9,0.0
10,0.0
11,0.0
12,0.0
13,0.0
14,1.7117485716179529
15,-12.526412403253377
16,-0.19127835445419806
17,-11.254070145214087
18,2.2102114877343626
2,1, 1, 1, 0, 3,15.00,30.00,Tuesday
7,-11.399999999999999
8,0.0
9,0.0
10,0.0
11,0.0
12,0.0
13,0.0
14,1.674785509955662
15,-12.403001264356379
16,-0.20438447947174155
17,-11.116913465838593
18,2.1676219624968895
2,1, 1, 1, 0, 3,30.00,45.00,Tuesday
7,-11.25
8,0.0
9,0.0
10,0.0
11,0.0
12,0.0
13,0.0
14,1.6387495783269349
15,-12.281178843788006
16,-0.21583022425011223
17,-10.979405709988328
18,2.126106588123282
2,1, 1, 1, 0, 3,45.00,60.00,Tuesday
7,-11.1
8,0.0
9,0.0
10,0.0
11,0.0
12,0.0
13,0.0
14,1.603189621715973
15,-12.161006745011564
16,-0.22666082960449786
17,-10.842307906020949
18,2.085392958939223
2,1, 1, 1, 0, 4, 0.00,15.00,Tuesday
7,-11.1
8,0.0
9,0.0
10,0.0
11,0.0
12,0.0
13,0.0
14,1.5642528429847563
15,-12.130689440434539
16,-0.2658914337442866
17,-10.845168548174798
18,2.0448995973585859
2,1, 1, 1, 0, 4,15.00,30.00,Tuesday
7,-11.1
8,0.0
9,0.0
10,0.0
11,0.0
12,0.0
13,0.0
14,1.5257407838430819
15,-12.101539489153753
16,-0.3021814138294303
17,-10.854838186581219
18,2.004354404465731
2,1, 1, 1, 0, 4,30.00,45.00,Tuesday
7,-11.1
8,0.0
9,0.0
10,0.0
11,0.0
12,0.0
13,0.0
14,1.487186499431416
15,-12.074009749468099
16,-0.33805678872909086
17,-10.86461558465055
18,1.9637597952474196
2,1, 1, 1, 0, 4,45.00,60.00,Tuesday
7,-11.1
8,0.0
9,0.0
10,0.0
11,0.0
12,0.0
13,0.0
14,1.448633018511944
15,-12.047969078028903
16,-0.3738222444767416
17,-10.874047912445008
18,1.9231931721916
2,1, 1, 1, 0, 5, 0.00,15.00,Tuesday
7,-10.975
8,0.0
9,0.0
10,0.0
11,0.0
12,0.0
13,0.0
14,1.4155968019262622
15,-11.925732960898012
16,-0.38707249683750435
17,-10.777186561515862
18,1.8835401131223835
2,1, 1, 1, 0, 5,15.00,30.00,Tuesday
7,-10.85
8,0.0
9,0.0
10,0.0
11,0.0
12,0.0
13,0.0
14,1.382702885924039
15,-11.803592890284243
16,-0.400742897356281
17,-10.672734458379523
18,1.8452118712810666
2,1, 1, 1, 0, 5,30.00,45.00,Tuesday
7,-10.725
8,0.0
9,0.0
10,0.0
11,0.0
12,0.0
13,0.0
14,1.3506680556030937
15,-11.681434447741975
16,-0.4140423880548383
17,-10.567647566937467
18,1.8080600925950652
2,1, 1, 1, 0, 5,45.00,60.00,Tuesday
7,-10.6
8,0.0
9,0.0
10,0.0
11,0.0
12,0.0
13,0.0
14,1.3193680621962527
15,-11.559286549100325
16,-0.42661546512431416
17,-10.462424026904785
18,1.771792332695286
2,1, 1, 1, 0, 6, 0.00,15.00,Tuesday
7,-10.6
8,0.0
9,0.0
10,0.0
11,0.0
12,0.0
13,0.0
14,1.2808903248070998
15,-11.56007228039694
16,-0.459376801028327
17,-10.462320855742178
18,1.7350555477248735
2,1, 1, 1, 0, 6,15.00,30.00,Tuesday
7,-10.6
8,0.0
9,0.0
10,0.0
11,0.0
12,0.0
13,0.0
14,1.2430346091672778
15,-11.560776121563969
16,-0.4933011352483163
17,-10.465819342119119
18,1.6971105781640817
2,1, 1, 1, 0, 6,30.00,45.00,Tuesday
7,-10.6
8,0.0
9,0.0
10,0.0
11,0.0
12,0.0
13,0.0
14,1.2046791562738613
15,-11.561522295860105
16,-0.5270559664625125
17,-10.47018645132664
18,1.6581258825405585
2,1, 1, 1, 0, 6,45.00,60.00,Tuesday
7,-10.6
8,0.0
9,0.0
10,0.0
11,0.0
12,0.0
13,0.0
14,1.1659862936681172
15,-11.562268676981182
16,-0.5611413237676288
17,-10.47488383202915
18,1.6185489607500943
2,1, 1, 1, 0, 7, 0.00,15.00,Tuesday
7,-10.6
8,0.0
9,0.0
10,0.0
11,0.0
12,0.0
13,0.0
14,1.129454531576302
15,-11.537273897081711
16,-0.5963617547639615
17,-10.479863531828983
18,1.5790545136217833
2,1, 1, 1, 0, 7,15.00,30.00,Tuesday
7,-10.6
8,0.0
9,0.0
10,0.0
11,0.0
12,0.0
13,0.0
14,1.0927328108694697
15,-11.513574421176136
16,-0.6300114314510097
17,-10.486398424834534
18,1.540069777480784
2,1, 1, 1, 0, 7,30.00,45.00,Tuesday
7,-10.6
8,0.0
9,0.0
10,0.0
11,0.0
12,0.0
13,0.0
14,1.0562814915271879
15,-11.491075491590405
16,-0.6634568564470555
17,-10.492853842876457
18,1.5016057670447969
2,1, 1, 1, 0, 7,45.00,60.00,Tuesday
7,-10.6
8,0.0
9,0.0
10,0.0
11,0.0
12,0.0
13,0.0
14,1.020130523601166
15,-11.4697066401455
16,-0.6961775915885369
17,-10.49981498186321
18,1.4635942397338327
2,1, 1, 1, 0, 8, 0.00,15.00,Tuesday
7,-10.45
8,0.0
9,0.0
10,0.0
11,0.0
12,0.0
13,0.0
14,0.9830115490782947
15,-11.421595604832284
16,-0.7196543197495657
17,-10.459936853267891
18,1.4253664034116714
2,1, 1, 1, 0, 8,15.00,30.00,Tuesday
7,-10.3
8,81.57789177013138
9,1.0
10,22.819555959623899
11,1.0
12,22.819555959623899
13,81.57789177013138
14,1.0516405180051003
15,-9.748721909211915
16,-0.32371468074757106
17,-10.086947389740942
18,1.4019837543580738
2,1, 1, 1, 0, 8,30.00,45.00,Tuesday
7,-10.15
8,402.7137776253556
9,1.0
10,109.75755355442667
11,1.0
12,109.75755355442667
13,402.7137776253556
14,1.4078696620416127
15,-3.3876426547699078
16,1.3743695641778687
17,-8.733939977464502
18,1.4339341344643775
2,1, 1, 1, 0, 8,45.00,60.00,Tuesday
7,-10.0
8,738.0846077388306
9,1.0
10,195.8764694434918
11,1.0
12,195.8764694434918
13,738.0846077388306
14,1.8574894679906949
15,3.1057365436727468
16,3.103855892347269
17,-7.4347784178856959
18,1.5281932894690454
2,1, 1, 1, 0, 9, 0.00,15.00,Tuesday
7,-9.725
8,1077.857775562109
9,1.0
10,278.97248314719988
11,1.0
12,278.97248314719988
13,1077.857775562109
14,2.2103000253119684
15,8.282377152346199
16,4.637098507421399
17,-6.29842933415614
18,1.6723981121155152
2,1, 1, 1, 0, 9,15.00,30.00,Tuesday
7,-9.45
8,1441.263091966035
9,1.0
10,364.91995730569456
11,1.0
12,364.91995730569456
13,1441.263091966035
14,2.5882807408363499
15,13.36250239519196
16,6.1638411819245679
17,-5.1803535813807
18,1.858174023785592
2,1, 1, 1, 0, 9,30.00,45.00,Tuesday
7,-9.175
8,1688.2273580618947
9,1.0
10,420.35879993239237
11,1.0
12,420.35879993239237
13,1688.2273580618947
14,2.847420675975705
15,16.121479048210586
16,7.172609244597368
17,-4.505524434036374
18,2.065419120074134
2,1, 1, 1, 0, 9,45.00,60.00,Tuesday
7,-8.9
8,1946.1206995044068
9,1.0
10,478.00138373643099
11,1.0
12,478.00138373643099
13,1946.1206995044068
14,3.154263740069259
15,19.116788377435588
16,8.184521621926365
17,-3.80105615905984
18,2.2848499758845359
2,1, 1, 1, 0,10, 0.00,15.00,Tuesday
7,-8.350000000000002
8,2210.7129100732925
9,1.0
10,536.9185644770597
11,1.0
12,536.9185644770597
13,2210.7129100732925
14,3.402072374563031
15,20.236265719011138
16,9.2277317726805
17,-3.026519199278482
18,2.521930171723408
2,1, 1, 1, 0,10,15.00,30.00,Tuesday
7,-7.800000000000001
8,2485.0046355360898
9,1.0
10,598.0969199229219
11,1.0
12,598.0969199229219
13,2485.0046355360898
14,3.676051873866026
15,21.49082185991954
16,10.297360342376919
17,-2.2679040193046378
18,2.7748991459154235
2,1, 1, 1, 0,10,30.00,45.00,Tuesday
7,-7.25
8,2668.82856090549
9,1.0
10,637.6133352894237
11,1.0
12,637.6133352894237
13,2668.82856090549
14,3.8813405432281304
15,21.55186628506373
16,11.055117821301792
17,-1.7561625802655954
18,3.0292728398569559
2,1, 1, 1, 0,10,45.00,60.00,Tuesday
7,-6.7
8,2849.822143982257
9,1.0
10,676.6412284283772
11,1.0
12,676.6412284283772
13,2849.822143982257
14,4.103460334609079
15,21.713114551606947
16,11.784129022600724
17,-1.2357805768487538
18,3.2760228098588874
2,1, 1, 1, 0,11, 0.00,15.00,Tuesday
7,-6.275
8,3027.3217367050217
9,1.0
10,715.0112779846514
11,1.0
12,715.0112779846514
13,3027.3217367050217
14,4.401744803354378
15,23.810572018786286
16,12.529637880656538
17,-0.49074316885349847
18,3.5185278983850316
2,1, 1, 1, 0,11,15.00,30.00,Tuesday
7,-5.85
8,3200.387223039
9,1.0
10,752.5077794605232
11,1.0
12,752.5077794605232
13,3200.387223039
14,4.686174940607584
15,25.74540141156986
16,13.263770142958152
17,0.2295958794687749
18,3.7616660255106364
2,1, 1, 1, 0,11,30.00,45.00,Tuesday
7,-5.425
8,3153.1277706645407
9,1.0
10,742.5988714321785
11,1.0
12,742.5988714321785
13,3153.1277706645407
14,4.845402752341486
15,25.597109892979615
16,13.351154724678282
17,0.5188496019889044
18,3.9898196035138198
2,1, 1, 1, 0,11,45.00,60.00,Tuesday
7,-5.0
8,3083.322272276908
9,1.0
10,727.8169025450712
11,1.0
12,727.8169025450712
13,3083.322272276908
14,5.0002410063543289
15,25.367645043511304
16,13.343976373856322
17,0.7743231536202302
18,4.192021276658722
2,1, 1, 1, 0,12, 0.00,15.00,Tuesday
7,-4.575
8,2962.924916620008
9,1.0
10,700.3759009170325
11,1.0
12,700.3759009170325
13,2962.924916620008
14,5.104092192664857
15,24.624807964866169
16,13.158018568893113
17,0.9619209153621569
18,4.362955797274784
2,1, 1, 1, 0,12,15.00,30.00,Tuesday
7,-4.15
8,2870.5418011752378
9,1.0
10,681.6705029034473
11,1.0
12,681.6705029034473
13,2870.5418011752378
14,5.227013888765389
15,24.29414160578369
16,13.077033413921527
17,1.2287569009575919
18,4.509905321725016
2,1, 1, 1, 0,12,30.00,45.00,Tuesday
7,-3.7249999999999998
8,2514.7435237820238
9,1.0
10,602.01865277251
11,1.0
12,602.01865277251
13,2514.7435237820238
14,5.138191967012362
15,21.265627606642295
16,12.151825442446011
17,0.9705117093609488
18,4.614706951455316
2,1, 1, 1, 0,12,45.00,60.00,Tuesday
7,-3.3
8,2050.7140932970917
9,1.0
10,493.55004396206007
11,1.0
12,493.55004396206007
13,2050.7140932970917
14,4.951120009230919
15,17.086834033593857
16,10.72218029836938
17,0.4368900241370284
18,4.659305635175617
2,1, 1, 1, 0,13, 0.00,15.00,Tuesday
7,-3.0249999999999996
8,1684.8098149581206
9,1.0
10,412.335026418112
11,1.0
12,412.335026418112
13,1684.8098149581206
14,4.817791094642322
15,14.241971473626834
16,9.606768273420017
17,0.07765832547011087
18,4.655868058410469
2,1, 1, 1, 0,13,15.00,30.00,Tuesday
7,-2.75
8,1226.9263846956772
9,1.0
10,305.94037763660148
11,1.0
12,305.94037763660148
13,1226.9263846956772
14,4.556698723242831
15,10.067636330252457
16,8.066772837772533
17,-0.5343122390244162
18,4.607236139842363
2,1, 1, 1, 0,13,30.00,45.00,Tuesday
7,-2.475
8,1116.7151556744887
9,1.0
10,281.0763483922329
11,1.0
12,281.0763483922329
13,1116.7151556744887
14,4.534520387414476
15,9.555686048834355
16,7.694529446528975
17,-0.4244796707185401
18,4.54608590684289
2,1, 1, 1, 0,13,45.00,60.00,Tuesday
7,-2.2
8,1008.776798040009
9,1.0
10,256.7721209415886
11,1.0
12,256.7721209415886
13,1008.776798040009
14,4.499003633107292
15,8.947150417996234
16,7.3787051428174099
17,-0.2917534458931641
18,4.4953534806333919
2,1, 1, 1, 0,14, 0.00,15.00,Tuesday
7,-1.9250000000000003
8,822.0053510600566
9,1.0
10,210.73276284570657
11,1.0
12,210.73276284570657
13,822.0053510600566
14,4.384581740558117
15,7.394621376516946
16,6.693008513308882
17,-0.41134669510000779
18,4.45043452449183
2,1, 1, 1, 0,14,15.00,30.00,Tuesday
7,-1.6500000000000002
8,726.3834955382383
9,1.0
10,189.38488290342594
11,1.0
12,189.38488290342594
13,726.3834955382383
14,4.3663497855062769
15,6.995462498090248
16,6.377627681193985
17,-0.3050068756023734
18,4.411356857220227
2,1, 1, 1, 0,14,30.00,45.00,Tuesday
7,-1.375
8,694.0193821649918
9,1.0
10,179.3940297802914
11,1.0
12,179.3940297802914
13,694.0193821649918
14,4.3643022788369258
15,7.115128682024719
16,6.261317258099666
17,-0.08739548277310405
18,4.380424766859107
2,1, 1, 1, 0,14,45.00,60.00,Tuesday
7,-1.1
8,660.8107795174899
9,1.0
10,169.43349014176136
11,1.0
12,169.43349014176136
13,660.8107795174899
14,4.361838417668772
15,7.2129208640794089
16,6.142759677197887
17,0.12913583287490838
18,4.35693049038071
2,1, 1, 1, 0,15, 0.00,15.00,Tuesday
7,-1.1
8,694.755045768412
9,1.0
10,178.15692317953907
11,1.0
12,178.15692317953907
13,694.755045768412
14,4.413758867571417
15,8.030686641539165
16,6.2899494267749109
17,0.2622459658054481
18,4.343419498237483
2,1, 1, 1, 0,15,15.00,30.00,Tuesday
7,-1.1
8,652.5555330070315
9,1.0
10,166.40516310952945
11,1.0
12,166.40516310952945
13,652.5555330070315
14,4.375560050336543
15,7.6646514917208139
16,6.105533627741465
17,0.17751306180815619
18,4.333518576208082
2,1, 1, 1, 0,15,30.00,45.00,Tuesday
7,-1.1
8,548.3234552560667
9,1.0
10,140.8967369711617
11,1.0
12,140.8967369711617
13,548.3234552560667
14,4.282637046981702
15,6.4564140765004469
16,5.66575641579675
17,-0.0958585102816869
18,4.314692689906461
2,1, 1, 1, 0,15,45.00,60.00,Tuesday
7,-1.1
8,449.4876351255831
9,1.0
10,116.57355796743004
11,1.0
12,116.57355796743004
13,449.4876351255831
14,4.1833055742826599
15,5.246049768827568
16,5.219623904402567
17,-0.3747479026461633
18,4.280916170900495
2,1, 1, 1, 0,16, 0.00,15.00,Tuesday
7,-1.1
8,355.27351221521027
9,1.0
10,93.14939272689483
11,1.0
12,93.14939272689483
13,355.27351221521027
14,4.097209027809542
15,4.192208166537563
16,4.782242574788597
17,-0.580274391689386
18,4.232571746554505
2,1, 1, 1, 0,16,15.00,30.00,Tuesday
7,-1.1
8,219.6517842311605
9,1.0
10,57.94047897402063
11,1.0
12,57.94047897402063
13,219.6517842311605
14,3.93227935871276
15,2.063440102837836
16,4.070203799187311
17,-0.9986353887403539
18,4.166371381706388
2,1, 1, 1, 0,16,30.00,45.00,Tuesday
7,-1.1
8,169.5187556139424
9,1.0
10,45.38251793443488
11,1.0
12,45.38251793443488
13,169.5187556139424
14,3.86963949094101
15,1.4473086854970528
16,3.7756639551197397
17,-1.1180368781025437
18,4.090976511308271
2,1, 1, 1, 0,16,45.00,60.00,Tuesday
7,-1.1
8,117.85647239998832
9,1.0
10,32.02625108222755
11,1.0
12,32.02625108222755
13,117.85647239998832
14,3.775247915095227
15,0.5777920890767361
16,3.491563504091914
17,-1.2658523949222627
18,4.01303405941939
2,1, 1, 1, 0,17, 0.00,15.00,Tuesday
7,-1.1
8,64.4617706779307
9,1.0
10,17.762198626050539
11,1.0
12,17.762198626050539
13,64.4617706779307
14,3.6529947517260448
15,-0.682164430811061
16,3.157990038025332
17,-1.5505944920420234
18,3.929509922908015
2,1, 1, 1, 0,17,15.00,30.00,Tuesday
7,-1.1
8,0.0
9,0.0
10,0.0
11,0.0
12,0.0
13,0.0
14,3.482827418677173
15,-2.5232156335824955
16,2.751956123921957
17,-1.8787619765658406
18,3.8322085807879948
2,1, 1, 1, 0,17,30.00,45.00,Tuesday
7,-1.1
8,0.0
9,0.0
10,0.0
11,0.0
12,0.0
13,0.0
14,3.4337227463955077
15,-2.663055925396064
16,2.6547986893173176
17,-1.9431919289637563
18,3.7364753138347668
2,1, 1, 1, 0,17,45.00,60.00,Tuesday
7,-1.1
8,0.0
9,0.0
10,0.0
11,0.0
12,0.0
13,0.0
14,3.3707240510500005
15,-2.8609186750525428
16,2.594534732283819
17,-2.0178783309100369
18,3.6558556127689716
2,1, 1, 1, 0,18, 0.00,15.00,Tuesday
7,-1.25
8,0.0
9,0.0
10,0.0
11,0.0
12,0.0
13,0.0
14,3.319436003673708
15,-3.0078543357307248
16,2.518726823380973
17,-2.1657971134581546
18,3.5923951539675897
2,1, 1, 1, 0,18,15.00,30.00,Tuesday
7,-1.4
8,0.0
9,0.0
10,0.0
11,0.0
12,0.0
13,0.0
14,3.2732945376555504
15,-3.1601871394941445
16,2.45593592335581
17,-2.3028942243985854
18,3.5418561015180356
2,1, 1, 1, 0,18,30.00,45.00,Tuesday
7,-1.5499999999999999
8,0.0
9,0.0
10,0.0
11,0.0
12,0.0
13,0.0
14,3.231696077012332
15,-3.3119305431948216
16,2.3976044608398867
17,-2.440008786722842
18,3.4991452927203507
2,1, 1, 1, 0,18,45.00,60.00,Tuesday
7,-1.7
8,0.0
9,0.0
10,0.0
11,0.0
12,0.0
13,0.0
14,3.193540501075629
15,-3.463840508592981
16,2.3426526192236567
17,-2.576473697257825
18,3.460795551235177
2,1, 1, 1, 0,19, 0.00,15.00,Tuesday
7,-1.825
8,0.0
9,0.0
10,0.0
11,0.0
12,0.0
13,0.0
14,3.1815126679293415
15,-3.3059126648160794
16,2.3132912935913056
17,-2.5893518940112587
18,3.428555110570049
2,1, 1, 1, 0,19,15.00,30.00,Tuesday
7,-1.9500000000000002
8,0.0
9,0.0
10,0.0
11,0.0
12,0.0
13,0.0
14,3.1690238973126449
15,-3.230489827298878
16,2.2891034383681019
17,-2.6290071264430709
18,3.4039302557846646
2,1, 1, 1, 0,19,30.00,45.00,Tuesday
7,-2.075
8,0.0
9,0.0
10,0.0
11,0.0
12,0.0
13,0.0
14,3.1516883416633649
15,-3.3018926465854268
16,2.259122086223158
17,-2.719957311579549
18,3.385162018633814
2,1, 1, 1, 0,19,45.00,60.00,Tuesday
7,-2.2
8,0.0
9,0.0
10,0.0
11,0.0
12,0.0
13,0.0
14,3.1377083628768864
15,-3.272083054931383
16,2.237374341064651
17,-2.776520535403165
18,3.3692262662195615
2,1, 1, 1, 0,20, 0.00,15.00,Tuesday
7,-1.9250000000000003
8,0.0
9,0.0
10,0.0
11,0.0
12,0.0
13,0.0
14,3.138672265922564
15,-2.968990393589226
16,2.2732731358943285
17,-2.527020629564049
18,3.3557638107080649
2,1, 1, 1, 0,20,15.00,30.00,Tuesday
7,-1.6500000000000002
8,0.0
9,0.0
10,0.0
11,0.0
12,0.0
13,0.0
14,3.141506983578538
15,-2.669066001607231
16,2.3110720670541697
17,-2.2731485408236837
18,3.3450829344764649
2,1, 1, 1, 0,20,30.00,45.00,Tuesday
7,-1.375
8,0.0
9,0.0
10,0.0
11,0.0
12,0.0
13,0.0
14,3.144909221201821
15,-2.370577275124098
16,2.3506655456499176
17,-2.0183616754802644
18,3.336902122823328
2,1, 1, 1, 0,20,45.00,60.00,Tuesday
7,-1.1
8,0.0
9,0.0
10,0.0
11,0.0
12,0.0
13,0.0
14,3.149631107258348
15,-2.073394601936621
16,2.391514284635832
17,-1.7628120589893115
18,3.3306482284433516
2,1, 1, 1, 0,21, 0.00,15.00,Tuesday
7,-1.25
8,0.0
9,0.0
10,0.0
11,0.0
12,0.0
13,0.0
14,3.1100081933413445
15,-2.3622206352302288
16,2.350083341114214
17,-1.9463092658307915
18,3.3200889051980408
2,1, 1, 1, 0,21,15.00,30.00,Tuesday
7,-1.4
8,0.0
9,0.0
10,0.0
11,0.0
12,0.0
13,0.0
14,3.071741271177872
15,-2.5828085303470056
16,2.2989748675697685
17,-2.0935689904336529
18,3.3005391222106046
2,1, 1, 1, 0,21,30.00,45.00,Tuesday
7,-1.5499999999999999
8,0.0
9,0.0
10,0.0
11,0.0
12,0.0
13,0.0
14,3.0194815510289367
15,-2.93724747574227
16,2.2373267156946214
17,-2.2924772798372716
18,3.2706186440787698
2,1, 1, 1, 0,21,45.00,60.00,Tuesday
7,-1.7
8,0.0
9,0.0
10,0.0
11,0.0
12,0.0
13,0.0
14,2.9618516027952146
15,-3.4006748043445484
16,2.1610861407407357
17,-2.5277466770792786
18,3.2320540627688287
2,1, 1, 1, 0,22, 0.00,15.00,Tuesday
7,-1.5499999999999999
8,0.0
9,0.0
10,0.0
11,0.0
12,0.0
13,0.0
14,2.9764552542010405
15,-2.8994636263199418
16,2.170531786028846
17,-2.288209253352477
18,3.198536908842354
2,1, 1, 1, 0,22,15.00,30.00,Tuesday
7,-1.4
8,0.0
9,0.0
10,0.0
11,0.0
12,0.0
13,0.0
14,2.982352985719759
15,-2.559985413756209
16,2.20033873323041
17,-2.0925735627212136
18,3.1779030399707199
2,1, 1, 1, 0,22,30.00,45.00,Tuesday
7,-1.25
8,0.0
9,0.0
10,0.0
11,0.0
12,0.0
13,0.0
14,2.986019792904159
15,-2.335720275789078
16,2.226419158792396
17,-1.9435808316507064
18,3.1683218150510936
2,1, 1, 1, 0,22,45.00,60.00,Tuesday
7,-1.1
8,0.0
9,0.0
10,0.0
11,0.0
12,0.0
13,0.0
14,2.993531139007187
15,-2.0456969413991805
16,2.257171298124149
17,-1.747690469891836
18,3.1647187750959708
2,1, 1, 1, 0,23, 0.00,15.00,Tuesday
7,-1.25
8,0.0
9,0.0
10,0.0
11,0.0
12,0.0
13,0.0
14,2.954531156404134
15,-2.349268801475539
16,2.1968074983514045
17,-2.0457828778685327
18,3.1572093641044369
2,1, 1, 1, 0,23,15.00,30.00,Tuesday
7,-1.4
8,0.0
9,0.0
10,0.0
11,0.0
12,0.0
13,0.0
14,2.91897321598592
15,-2.65377447896472
16,2.12018865878656
17,-2.3499571002452059
18,3.140457992134845
2,1, 1, 1, 0,23,30.00,45.00,Tuesday
7,-1.5499999999999999
8,0.0
9,0.0
10,0.0
11,0.0
12,0.0
13,0.0
14,2.87748770580419
15,-2.958942398773073
16,2.042761285262941
17,-2.6539060462411045
18,3.114808617857684
2,1, 1, 1, 0,23,45.00,60.00,Tuesday
7,-1.7
8,0.0
9,0.0
10,0.0
11,0.0
12,0.0
13,0.0
14,2.833516827886243
15,-3.2643686526180977
16,1.9611974449874197
17,-2.9581981145953479
18,3.08276836104391
2,1, 1, 1, 0,24, 0.00,15.00,Tuesday
7,-1.7
8,0.0
9,0.0
10,0.0
11,0.0
12,0.0
13,0.0
14,2.8069040040250674
15,-3.3181382698355006
16,1.9223307928072587
17,-3.0170418412930077
18,3.0495796710274098
2,1, 1, 1, 0,24,15.00,30.00,Tuesday
7,-1.7
8,0.0
9,0.0
10,0.0
11,0.0
12,0.0
13,0.0
14,2.7772317643216746
15,-3.372665473033795
16,1.8885278086809763
17,-3.0770816144872699
18,3.0182679442207727
2,1, 1, 1, 0,24,30.00,45.00,Tuesday
7,-1.7
8,0.0
9,0.0
10,0.0
11,0.0
12,0.0
13,0.0
14,2.748295384955091
15,-3.4270550913887596
16,1.8540638826610803
17,-3.137366696057029
18,2.9890708317100747
2,1, 1, 1, 0,24,45.00,60.00,Tuesday
7,-1.7
8,0.0
9,0.0
10,0.0
11,0.0
12,0.0
13,0.0
14,2.719977822007802
15,-3.481445552001778
16,1.8202910992159787
17,-3.1974905378429527
18,2.9612037689419496
End of Data
 Number of Records Written=        1152
