Program Version,EnergyPlus, Version 9.5.0-de239b2e5f, YMD=2023.02.13 19:58
1,5,Environment Title[],Latitude[deg],Longitude[deg],Time Zone[],Elevation[m]
2,8,Day of Simulation[],Month[],Day of Month[],DST Indicator[1=yes 0=no],Hour[],StartMinute[],EndMinute[],DayType
3,5,Cumulative Day of Simulation[],Month[],Day of Month[],DST Indicator[1=yes 0=no],DayType  ! When Daily Report Variables Requested
4,2,Cumulative Days of Simulation[],Month[]  ! When Monthly Report Variables Requested
5,1,Cumulative Days of Simulation[] ! When Run Period Report Variables Requested
6,1,Calendar Year of Simulation[] ! When Annual Report Variables Requested
7,1,Environment,Site Outdoor Air Drybulb Temperature [C] !TimeStep
8,1,ZONE ONE,Zone Windows Total Transmitted Solar Radiation Rate [W] !TimeStep
9,1,ZN001:WALL001,Surface Outside Face Sunlit Fraction [] !TimeStep
10,1,ZN001:WALL001,Surface Outside Face Incident Solar Radiation Rate per Area [W/m2] !TimeStep
11,1,ZN001:WALL001:WIN001,Surface Outside Face Sunlit Fraction [] !TimeStep
12,1,ZN001:WALL001:WIN001,Surface Outside Face Incident Solar Radiation Rate per Area [W/m2] !TimeStep
13,1,ZN001:WALL001:WIN001,Surface Window Transmitted Solar Radiation Rate [W] !TimeStep
14,1,ZN001:WALL001,Surface Inside Face Temperature [C] !TimeStep
15,1,ZN001:WALL001,Surface Outside Face Temperature [C] !TimeStep
16,1,ZN001:WALL001:WIN001,Surface Inside Face Temperature [C] !TimeStep
17,1,ZN001:WALL001:WIN001,Surface Outside Face Temperature [C] !TimeStep
18,1,ZONE ONE,Zone Mean Air Temperature [C] !TimeStep
End of Data Dictionary
1,RUN PERIOD 1,  41.98, -87.92,  -6.00, 201.00
2,1, 1, 1, 0, 1, 0.00,15.00,Tuesday
7,-4.324999999999999
8,0.0
9,0.0
10,0.0
11,0.0
12,0.0
13,0.0
14,10.17381890397115
15,-5.818778605270466
16,8.187905599708643
17,-4.485554608438406
18,10.75248988368716
2,1, 1, 1, 0, 1,15.00,30.00,Tuesday
7,-6.949999999999999
8,0.0
9,0.0
10,0.0
11,0.0
12,0.0
13,0.0
14,9.9899519963714
15,-8.285317643543987
16,7.732645602905734
17,-6.68609281583764
18,10.64847663290936
2,1, 1, 1, 0, 1,30.00,45.00,Tuesday
7,-9.575
8,0.0
9,0.0
10,0.0
11,0.0
12,0.0
13,0.0
14,9.78717218117302
15,-10.759692432733579
16,7.270202261732948
17,-8.893252884895844
18,10.515760730281583
2,1, 1, 1, 0, 1,45.00,60.00,Tuesday
7,-12.2
8,0.0
9,0.0
10,0.0
11,0.0
12,0.0
13,0.0
14,9.569656017608626
15,-13.240718465312562
16,6.792440904313821
17,-11.107823003031513
18,10.36347653571071
2,1, 1, 1, 0, 2, 0.00,15.00,Tuesday
7,-12.075
8,0.0
9,0.0
10,0.0
11,0.0
12,0.0
13,0.0
14,9.49391573762896
15,-13.040985714427152
16,6.693641709178621
17,-10.935413944330094
18,10.225409049565585
2,1, 1, 1, 0, 2,15.00,30.00,Tuesday
7,-11.95
8,0.0
9,0.0
10,0.0
11,0.0
12,0.0
13,0.0
14,9.405402216633857
15,-12.864095683411654
16,6.63798746284084
17,-10.777161506631956
18,10.116937242427156
2,1, 1, 1, 0, 2,30.00,45.00,Tuesday
7,-11.825
8,0.0
9,0.0
10,0.0
11,0.0
12,0.0
13,0.0
14,9.332904566715627
15,-12.686122733384357
16,6.587158310351015
17,-10.61880382815366
18,10.032590189616883
2,1, 1, 1, 0, 2,45.00,60.00,Tuesday
7,-11.7
8,0.0
9,0.0
10,0.0
11,0.0
12,0.0
13,0.0
14,9.270652162759476
15,-12.508244438778869
16,6.548593747160567
17,-10.45882242349694
18,9.961971741621277
2,1, 1, 1, 0, 3, 0.00,15.00,Tuesday
7,-11.549999999999999
8,0.0
9,0.0
10,0.0
11,0.0
12,0.0
13,0.0
14,9.20968980613694
15,-12.379963020000245
16,6.515786487779337
17,-10.307415638935027
18,9.89682317617616
2,1, 1, 1, 0, 3,15.00,30.00,Tuesday
7,-11.399999999999999
8,0.0
9,0.0
10,0.0
11,0.0
12,0.0
13,0.0
14,9.151513869296716
15,-12.252950648492116
16,6.486995369275064
17,-10.165046550147395
18,9.833308528382564
2,1, 1, 1, 0, 3,30.00,45.00,Tuesday
7,-11.25
8,0.0
9,0.0
10,0.0
11,0.0
12,0.0
13,0.0
14,9.093914791979247
15,-12.127341565776993
16,6.455053731200451
17,-10.004110865125654
18,9.770397192770569
2,1, 1, 1, 0, 3,45.00,60.00,Tuesday
7,-11.1
8,0.0
9,0.0
10,0.0
11,0.0
12,0.0
13,0.0
14,9.036763074512569
15,-12.003193020224085
16,6.428328115272052
17,-9.86076815079258
18,9.708140058690227
2,1, 1, 1, 0, 4, 0.00,15.00,Tuesday
7,-11.1
8,0.0
9,0.0
10,0.0
11,0.0
12,0.0
13,0.0
14,8.975904493799149
15,-11.977820405093575
16,6.365810014432441
17,-9.884324967859698
18,9.645887720552564
2,1, 1, 1, 0, 4,15.00,30.00,Tuesday
7,-11.1
8,0.0
9,0.0
10,0.0
11,0.0
12,0.0
13,0.0
14,8.915513237461454
15,-11.95341093265907
16,6.306821581907798
17,-9.913978230104135
18,9.58336595366869
2,1, 1, 1, 0, 4,30.00,45.00,Tuesday
7,-11.1
8,0.0
9,0.0
10,0.0
11,0.0
12,0.0
13,0.0
14,8.85502811009827
15,-11.930387713116958
16,6.2483278175442369
17,-9.943079928607176
18,9.520669864349829
2,1, 1, 1, 0, 4,45.00,60.00,Tuesday
7,-11.1
8,0.0
9,0.0
10,0.0
11,0.0
12,0.0
13,0.0
14,8.794545918882463
15,-11.90862786936105
16,6.190001188355893
17,-9.971241008334971
18,9.457971664315993
2,1, 1, 1, 0, 5, 0.00,15.00,Tuesday
7,-10.975
8,0.0
9,0.0
10,0.0
11,0.0
12,0.0
13,0.0
14,8.739455214389686
15,-11.786921383651704
16,6.156024800238356
17,-9.877285275766269
18,9.396305050814553
2,1, 1, 1, 0, 5,15.00,30.00,Tuesday
7,-10.85
8,0.0
9,0.0
10,0.0
11,0.0
12,0.0
13,0.0
14,8.684570205792657
15,-11.665267306238686
16,6.121312524759674
17,-9.775507797338492
18,9.336098077922037
2,1, 1, 1, 0, 5,30.00,45.00,Tuesday
7,-10.725
8,0.0
9,0.0
10,0.0
11,0.0
12,0.0
13,0.0
14,8.63066132420428
15,-11.543591745066385
16,6.087049441541694
17,-9.673105214877183
18,9.27714835118502
2,1, 1, 1, 0, 5,45.00,60.00,Tuesday
7,-10.6
8,0.0
9,0.0
10,0.0
11,0.0
12,0.0
13,0.0
14,8.577565354890814
15,-11.42192590056007
16,6.053608859836913
17,-9.570558171073572
18,9.219122312058941
2,1, 1, 1, 0, 6, 0.00,15.00,Tuesday
7,-10.6
8,0.0
9,0.0
10,0.0
11,0.0
12,0.0
13,0.0
14,8.517919883550038
15,-11.423059636058723
16,6.0004116621135499
17,-9.570578886754334
18,9.160555973114489
2,1, 1, 1, 0, 6,15.00,30.00,Tuesday
7,-10.6
8,0.0
9,0.0
10,0.0
11,0.0
12,0.0
13,0.0
14,8.4589118529352
15,-11.424165305353292
16,5.9472118165996339
17,-9.577277142599542
18,9.100800709259337
2,1, 1, 1, 0, 6,30.00,45.00,Tuesday
7,-10.6
8,0.0
9,0.0
10,0.0
11,0.0
12,0.0
13,0.0
14,8.399418647537792
15,-11.425311232600876
16,5.894121825224488
17,-9.584436168148045
18,9.040133153380497
2,1, 1, 1, 0, 6,45.00,60.00,Tuesday
7,-10.6
8,0.0
9,0.0
10,0.0
11,0.0
12,0.0
13,0.0
14,8.339667993541502
15,-11.426454227060216
16,5.84069024502071
17,-9.591685489617248
18,8.979039018453145
2,1, 1, 1, 0, 7, 0.00,15.00,Tuesday
7,-10.6
8,0.0
9,0.0
10,0.0
11,0.0
12,0.0
13,0.0
14,8.28177941613995
15,-11.405421612612843
16,5.7837604522271139
17,-9.61554869612769
18,8.91818809633865
2,1, 1, 1, 0, 7,15.00,30.00,Tuesday
7,-10.6
8,0.0
9,0.0
10,0.0
11,0.0
12,0.0
13,0.0
14,8.223839881279059
15,-11.385477679241886
16,5.728381751881557
17,-9.639491964341005
18,8.857904631135542
2,1, 1, 1, 0, 7,30.00,45.00,Tuesday
7,-10.6
8,0.0
9,0.0
10,0.0
11,0.0
12,0.0
13,0.0
14,8.16624601519413
15,-11.366553421855821
16,5.673356499537135
17,-9.662703859407145
18,8.798143050355068
2,1, 1, 1, 0, 7,45.00,60.00,Tuesday
7,-10.6
8,0.0
9,0.0
10,0.0
11,0.0
12,0.0
13,0.0
14,8.108985188490478
15,-11.348588343359813
16,5.618784211500099
17,-9.685107679901308
18,8.738771624931582
2,1, 1, 1, 0, 8, 0.00,15.00,Tuesday
7,-10.45
8,0.0
9,0.0
10,0.0
11,0.0
12,0.0
13,0.0
14,8.051278075668888
15,-11.297788183972763
16,5.579413311447979
17,-9.63371862689064
18,8.679350301565492
2,1, 1, 1, 0, 8,15.00,30.00,Tuesday
7,-10.3
8,215.5879980222353
9,1.0
10,22.819555959623899
11,1.0
12,22.819555959623899
13,215.5879980222353
14,8.121447095658347
15,-9.623561598702905
16,5.82103649880321
17,-9.3429185876102
18,8.6404054023013
2,1, 1, 1, 0, 8,30.00,45.00,Tuesday
7,-10.15
8,1058.5392312119832
9,1.0
10,109.75755355442667
11,1.0
12,109.75755355442667
13,1058.5392312119832
14,8.544558056970113
15,-3.243541027174776
16,6.91933505286238
17,-8.378312936826774
18,8.680106429413489
2,1, 1, 1, 0, 8,45.00,60.00,Tuesday
7,-10.0
8,1924.8399544048012
9,1.0
10,195.8764694434918
11,1.0
12,195.8764694434918
13,1924.8399544048012
14,9.06755179742723
15,3.2180876495863597
16,8.16453644211748
17,-7.428867209680789
18,8.80607420664894
2,1, 1, 1, 0, 9, 0.00,15.00,Tuesday
7,-9.725
8,2788.1568045040946
9,1.0
10,278.97248314719988
11,1.0
12,278.97248314719988
13,2788.1568045040946
14,9.573157433235873
15,8.40800972873735
16,9.472054417814377
17,-6.574379547880881
18,8.992557476224612
2,1, 1, 1, 0, 9,15.00,30.00,Tuesday
7,-9.45
8,3698.191694964431
9,1.0
10,364.91995730569456
11,1.0
12,364.91995730569456
13,3698.191694964431
14,10.05988161184546
15,13.476580361846857
16,10.744316654497993
17,-5.73265333763112
18,9.228862175326622
2,1, 1, 1, 0, 9,30.00,45.00,Tuesday
7,-9.175
8,4300.2673206835229
9,1.0
10,420.35879993239237
11,1.0
12,420.35879993239237
13,4300.2673206835229
14,10.413921882875219
15,16.232527651584968
16,11.623001044659134
17,-5.1966999652823919
18,9.493702337170765
2,1, 1, 1, 0, 9,45.00,60.00,Tuesday
7,-8.9
8,4925.271017558337
9,1.0
10,478.00138373643099
11,1.0
12,478.00138373643099
13,4925.271017558337
14,10.828434611409639
15,19.22587522913645
16,12.489436110892712
17,-4.650547083483275
18,9.775479922197173
2,1, 1, 1, 0,10, 0.00,15.00,Tuesday
7,-8.350000000000002
8,5563.47927965646
9,1.0
10,536.9185644770597
11,1.0
12,536.9185644770597
13,5563.47927965646
14,11.1948977083192
15,20.33759725514298
16,13.40217032336318
17,-3.9912834858706107
18,10.074299983170774
2,1, 1, 1, 0,10,15.00,30.00,Tuesday
7,-7.800000000000001
8,6223.735720388039
9,1.0
10,598.0969199229219
11,1.0
12,598.0969199229219
13,6223.735720388039
14,11.594494418117124
15,21.586300773909114
16,14.331915652185103
17,-3.320039377398075
18,10.215714873081348
2,1, 1, 1, 0,10,30.00,45.00,Tuesday
7,-7.25
8,6656.871608685562
9,1.0
10,637.6133352894237
11,1.0
12,637.6133352894237
13,6656.871608685562
14,11.869958829026137
15,21.640723304935258
16,15.015412407579106
17,-2.841797977974693
18,10.489533707071212
2,1, 1, 1, 0,10,45.00,60.00,Tuesday
7,-6.7
8,7083.627635407371
9,1.0
10,676.6412284283772
11,1.0
12,676.6412284283772
13,7083.627635407371
14,12.137840152333228
15,21.79648176167529
16,15.631637887560374
17,-2.3568757273380358
18,10.692737354340896
2,1, 1, 1, 0,11, 0.00,15.00,Tuesday
7,-6.275
8,7502.619881932496
9,1.0
10,715.0112779846514
11,1.0
12,715.0112779846514
13,7502.619881932496
14,12.55800362451543
15,23.896292477801237
16,16.29584778854621
17,-1.7025686495848618
18,11.161746682372476
2,1, 1, 1, 0,11,15.00,30.00,Tuesday
7,-5.85
8,7911.749570952164
9,1.0
10,752.5077794605232
11,1.0
12,752.5077794605232
13,7911.749570952164
14,13.031424730627008
15,25.833488232675867
16,17.020659492568769
17,-1.0629790970448312
18,11.599894007661689
2,1, 1, 1, 0,11,30.00,45.00,Tuesday
7,-5.425
8,7790.156876744835
9,1.0
10,742.5988714321785
11,1.0
12,742.5988714321785
13,7790.156876744835
14,13.323466483318855
15,25.685337458597564
16,17.287944590157509
17,-0.7355270154501454
18,12.006881729436764
2,1, 1, 1, 0,11,45.00,60.00,Tuesday
7,-5.0
8,7616.415097398768
9,1.0
10,727.8169025450712
11,1.0
12,727.8169025450712
13,7616.415097398768
14,13.601240007976806
15,25.45728785629944
16,17.455787921882178
17,-0.43217654108593708
18,12.367014634339327
2,1, 1, 1, 0,12, 0.00,15.00,Tuesday
7,-4.575
8,7317.63187899619
9,1.0
10,700.3759009170325
11,1.0
12,700.3759009170325
13,7317.63187899619
14,13.801290753813595
15,24.71546681858766
16,17.48187017045217
17,-0.1661066856014486
18,12.676730815602703
2,1, 1, 1, 0,12,15.00,30.00,Tuesday
7,-4.15
8,7096.045470548525
9,1.0
10,681.6705029034473
11,1.0
12,681.6705029034473
13,7096.045470548525
14,14.021484868232119
15,24.385912012332207
16,17.563270870557404
17,0.15764639940846338
18,12.948723588766214
2,1, 1, 1, 0,12,30.00,45.00,Tuesday
7,-3.7249999999999998
8,6229.736928425406
9,1.0
10,602.01865277251
11,1.0
12,602.01865277251
13,6229.736928425406
14,13.935837743569046
15,21.357169281287118
16,17.01352905995401
17,0.09842020720657274
18,13.158686057034898
2,1, 1, 1, 0,12,45.00,60.00,Tuesday
7,-3.3
8,5087.904404183855
9,1.0
10,493.55004396206007
11,1.0
12,493.55004396206007
13,5087.904404183855
14,13.739712883267073
15,17.180258624598968
16,16.037713614591156
17,-0.15255946073972383
18,13.274286023294695
2,1, 1, 1, 0,13, 0.00,15.00,Tuesday
7,-3.0249999999999996
8,4201.063393949559
9,1.0
10,412.335026418112
11,1.0
12,412.335026418112
13,4201.063393949559
14,13.60392483755088
15,14.337505599862795
16,15.247651418380088
17,-0.31437477777416236
18,13.31379379356645
2,1, 1, 1, 0,13,15.00,30.00,Tuesday
7,-2.75
8,3076.892122430221
9,1.0
10,305.94037763660148
11,1.0
12,305.94037763660148
13,3076.892122430221
14,13.264817771651347
15,10.165030425588908
16,14.134671063213432
17,-0.6580436388946964
18,13.288293859873287
2,1, 1, 1, 0,13,30.00,45.00,Tuesday
7,-2.475
8,2809.0935899127655
9,1.0
10,281.0763483922329
11,1.0
12,281.0763483922329
13,2809.0935899127655
14,13.230408066213693
15,9.653671744973672
16,13.819713780615075
17,-0.48298037535693086
18,13.242400927832504
2,1, 1, 1, 0,13,45.00,60.00,Tuesday
7,-2.2
8,2546.8736709552365
9,1.0
10,256.7721209415886
11,1.0
12,256.7721209415886
13,2546.8736709552365
14,13.190501387894168
15,9.047175310072275
16,13.604711362994351
17,-0.2844042860363629
18,13.202766463581457
2,1, 1, 1, 0,14, 0.00,15.00,Tuesday
7,-1.9250000000000003
8,2080.536760270814
9,1.0
10,210.73276284570657
11,1.0
12,210.73276284570657
13,2080.536760270814
14,13.0195983697938
15,7.499303304283801
16,13.082492945337549
17,-0.2781525093801065
18,13.166396155903398
2,1, 1, 1, 0,14,15.00,30.00,Tuesday
7,-1.6500000000000002
8,1848.1882299855229
9,1.0
10,189.38488290342594
11,1.0
12,189.38488290342594
13,1848.1882299855229
14,12.992957583104527
15,7.104131603137742
16,12.82371241294743
17,-0.10909050045256663
18,13.131967603270275
2,1, 1, 1, 0,14,30.00,45.00,Tuesday
7,-1.375
8,1762.648528253172
9,1.0
10,179.3940297802914
11,1.0
12,179.3940297802914
13,1762.648528253172
14,12.975298559155739
15,7.227634641002538
16,12.751986126787529
17,0.14455461961233596
18,13.101308460894734
2,1, 1, 1, 0,14,45.00,60.00,Tuesday
7,-1.1
8,1676.1315823352277
9,1.0
10,169.43349014176136
11,1.0
12,169.43349014176136
13,1676.1315823352277
14,12.953745733165935
15,7.3293726140273789
16,12.67087590261167
17,0.39781467372313275
18,13.074254964298799
2,1, 1, 1, 0,15, 0.00,15.00,Tuesday
7,-1.1
8,1764.2336451764168
9,1.0
10,178.15692317953907
11,1.0
12,178.15692317953907
13,1764.2336451764168
14,13.01542820257367
15,8.148411356042269
16,12.772823261726672
17,0.5108493035469337
18,13.05621629554208
2,1, 1, 1, 0,15,15.00,30.00,Tuesday
7,-1.1
8,1657.44905719483
9,1.0
10,166.40516310952945
11,1.0
12,166.40516310952945
13,1657.44905719483
14,12.955792867090672
15,7.788565028156065
16,12.652874017094462
17,0.4698416521729314
18,13.040255288651928
2,1, 1, 1, 0,15,30.00,45.00,Tuesday
7,-1.1
8,1397.5312645024297
9,1.0
10,140.8967369711617
11,1.0
12,140.8967369711617
13,1397.5312645024297
14,12.832692437308334
15,6.585592829235863
16,12.312119485803806
17,0.28991716287902138
18,13.011427171046308
2,1, 1, 1, 0,15,45.00,60.00,Tuesday
7,-1.1
8,1150.0543343484979
9,1.0
10,116.57355796743004
11,1.0
12,116.57355796743004
13,1150.0543343484979
14,12.715288397183534
15,5.38312307612585
16,11.972287721798694
17,0.10756921994857294
18,12.958829578583286
2,1, 1, 1, 0,16, 0.00,15.00,Tuesday
7,-1.1
8,912.7487358563033
9,1.0
10,93.14939272689483
11,1.0
12,93.14939272689483
13,912.7487358563033
14,12.594468905895372
15,4.336988080789078
16,11.656807955712054
17,0.012896514612066312
18,12.88618674855653
2,1, 1, 1, 0,16,15.00,30.00,Tuesday
7,-1.1
8,566.636069103818
9,1.0
10,57.94047897402063
11,1.0
12,57.94047897402063
13,566.636069103818
14,12.378916383616362
15,2.220759295713244
16,11.183785783124904
17,-0.2147781053030826
18,12.788513981894618
2,1, 1, 1, 0,16,30.00,45.00,Tuesday
7,-1.1
8,439.3280485110057
9,1.0
10,45.38251793443488
11,1.0
12,45.38251793443488
13,439.3280485110057
14,12.288284648054417
15,1.6188653234936737
16,10.950386749504674
17,-0.23113916418827785
18,12.681066561580803
2,1, 1, 1, 0,16,45.00,60.00,Tuesday
7,-1.1
8,306.6800834820858
9,1.0
10,32.02625108222755
11,1.0
12,32.02625108222755
13,306.6800834820858
14,12.158446971124848
15,0.7662135691460069
16,10.742341221132677
17,-0.2506973384122375
18,12.576566876728509
2,1, 1, 1, 0,17, 0.00,15.00,Tuesday
7,-1.1
8,168.21359625367695
9,1.0
10,17.762198626050539
11,1.0
12,17.762198626050539
13,168.21359625367695
14,12.005429963175948
15,-0.47081053990045659
16,10.48758037928809
17,-0.3852890056201659
18,12.47277215018511
2,1, 1, 1, 0,17,15.00,30.00,Tuesday
7,-1.1
8,0.0
9,0.0
10,0.0
11,0.0
12,0.0
13,0.0
14,11.802526408584223
15,-2.3011539125307247
16,10.170339863603204
17,-0.6255375220042083
18,12.355849049600238
2,1, 1, 1, 0,17,30.00,45.00,Tuesday
7,-1.1
8,0.0
9,0.0
10,0.0
11,0.0
12,0.0
13,0.0
14,11.734891747983957
15,-2.4301104832560536
16,10.060707345603192
17,-0.603876655461363
18,12.241751667161666
2,1, 1, 1, 0,17,45.00,60.00,Tuesday
7,-1.1
8,0.0
9,0.0
10,0.0
11,0.0
12,0.0
13,0.0
14,11.651131765938433
15,-2.6091233414993306
16,9.99948725894194
17,-0.5697995403974119
18,12.14517485005655
2,1, 1, 1, 0,18, 0.00,15.00,Tuesday
7,-1.25
8,0.0
9,0.0
10,0.0
11,0.0
12,0.0
13,0.0
14,11.579103094910904
15,-2.7584819031572156
16,9.906296130311262
17,-0.7207902599341196
18,12.066507020728725
2,1, 1, 1, 0,18,15.00,30.00,Tuesday
7,-1.4
8,0.0
9,0.0
10,0.0
11,0.0
12,0.0
13,0.0
14,11.513046298595633
15,-2.9109391513174605
16,9.826704367427397
17,-0.8595230211535636
18,11.999742450760161
2,1, 1, 1, 0,18,30.00,45.00,Tuesday
7,-1.5499999999999999
8,0.0
9,0.0
10,0.0
11,0.0
12,0.0
13,0.0
14,11.451382858001239
15,-3.063113614304149
16,9.75193194717906
17,-0.9979901797521507
18,11.939061528132437
2,1, 1, 1, 0,18,45.00,60.00,Tuesday
7,-1.7
8,0.0
9,0.0
10,0.0
11,0.0
12,0.0
13,0.0
14,11.391687755073234
15,-3.215450799492979
16,9.68019750504601
17,-1.1359361128855313
18,11.881023455910741
2,1, 1, 1, 0,19, 0.00,15.00,Tuesday
7,-1.825
8,0.0
9,0.0
10,0.0
11,0.0
12,0.0
13,0.0
14,11.353840012040397
15,-3.0864529605736656
16,9.604568270346534
17,-1.303570920425841
18,11.827493947430547
2,1, 1, 1, 0,19,15.00,30.00,Tuesday
7,-1.9500000000000002
8,0.0
9,0.0
10,0.0
11,0.0
12,0.0
13,0.0
14,11.316509255082983
15,-3.036428117675476
16,9.53984460873346
17,-1.4601300450192412
18,11.780444604820339
2,1, 1, 1, 0,19,30.00,45.00,Tuesday
7,-2.075
8,0.0
9,0.0
10,0.0
11,0.0
12,0.0
13,0.0
14,11.273562675472105
15,-3.114820782469081
16,9.486339519605622
17,-1.582948258895044
18,11.738283902892566
2,1, 1, 1, 0,19,45.00,60.00,Tuesday
7,-2.2
8,0.0
9,0.0
10,0.0
11,0.0
12,0.0
13,0.0
14,11.23430324613455
15,-3.1072168611829249
16,9.42638143597253
17,-1.7318731090757638
18,11.69797188777983
2,1, 1, 1, 0,20, 0.00,15.00,Tuesday
7,-1.9250000000000003
8,0.0
9,0.0
10,0.0
11,0.0
12,0.0
13,0.0
14,11.21098834295833
15,-2.809629319995319
16,9.433926210963023
17,-1.5112694408543348
18,11.660034570197663
2,1, 1, 1, 0,20,15.00,30.00,Tuesday
7,-1.6500000000000002
8,0.0
9,0.0
10,0.0
11,0.0
12,0.0
13,0.0
14,11.186980619514417
15,-2.514740073596805
16,9.442849647326398
17,-1.2815922363365076
18,11.625010231732578
2,1, 1, 1, 0,20,30.00,45.00,Tuesday
7,-1.375
8,0.0
9,0.0
10,0.0
11,0.0
12,0.0
13,0.0
14,11.164758069238863
15,-2.2209290898243529
16,9.45287307246258
17,-1.0501953785111483
18,11.592519705027783
2,1, 1, 1, 0,20,45.00,60.00,Tuesday
7,-1.1
8,0.0
9,0.0
10,0.0
11,0.0
12,0.0
13,0.0
14,11.143997848077748
15,-1.9282358287830366
16,9.464701373280775
17,-0.8170672714158513
18,11.56192118823008
2,1, 1, 1, 0,21, 0.00,15.00,Tuesday
7,-1.25
8,0.0
9,0.0
10,0.0
11,0.0
12,0.0
13,0.0
14,11.086018075508115
15,-2.194323996801636
16,9.421506195165023
17,-0.9003967975623937
18,11.52672649106926
2,1, 1, 1, 0,21,15.00,30.00,Tuesday
7,-1.4
8,0.0
9,0.0
10,0.0
11,0.0
12,0.0
13,0.0
14,11.028840347593829
15,-2.4028002880928649
16,9.363200867540855
17,-1.0036869492049619
18,11.482623641066758
2,1, 1, 1, 0,21,30.00,45.00,Tuesday
7,-1.5499999999999999
8,0.0
9,0.0
10,0.0
11,0.0
12,0.0
13,0.0
14,10.959238529266523
15,-2.7269362103602696
16,9.307462983946153
17,-1.0767455633586565
18,11.429028096867924
2,1, 1, 1, 0,21,45.00,60.00,Tuesday
7,-1.7
8,0.0
9,0.0
10,0.0
11,0.0
12,0.0
13,0.0
14,10.884344482956946
15,-3.1553658247095974
16,9.249894993894714
17,-1.1186313480989157
18,11.368245617985434
2,1, 1, 1, 0,22, 0.00,15.00,Tuesday
7,-1.5499999999999999
8,0.0
9,0.0
10,0.0
11,0.0
12,0.0
13,0.0
14,10.87084986130485
15,-2.6952299060726938
16,9.20030463352873
17,-1.0856811982490627
18,11.31349079862211
2,1, 1, 1, 0,22,15.00,30.00,Tuesday
7,-1.4
8,0.0
9,0.0
10,0.0
11,0.0
12,0.0
13,0.0
14,10.848266786806848
15,-2.3835165024671389
16,9.184323766165449
17,-1.017980467154871
18,11.271586584747942
2,1, 1, 1, 0,22,30.00,45.00,Tuesday
7,-1.25
8,0.0
9,0.0
10,0.0
11,0.0
12,0.0
13,0.0
14,10.825716951016691
15,-2.1716598417339525
16,9.175936629135208
17,-0.9177419510390337
18,11.239863674401534
2,1, 1, 1, 0,22,45.00,60.00,Tuesday
7,-1.1
8,0.0
9,0.0
10,0.0
11,0.0
12,0.0
13,0.0
14,10.807089447888528
15,-1.9038966464086503
16,9.167235046413225
17,-0.8281871429601324
18,11.212949165440893
2,1, 1, 1, 0,23, 0.00,15.00,Tuesday
7,-1.25
8,0.0
9,0.0
10,0.0
11,0.0
12,0.0
13,0.0
14,10.748643588312259
15,-2.206979493976397
16,9.09014654974078
17,-1.1222833406425253
18,11.180673853661777
2,1, 1, 1, 0,23,15.00,30.00,Tuesday
7,-1.4
8,0.0
9,0.0
10,0.0
11,0.0
12,0.0
13,0.0
14,10.69233283516336
15,-2.511693393628015
16,8.998572103650475
17,-1.430114573432661
18,11.138427802009052
2,1, 1, 1, 0,23,30.00,45.00,Tuesday
7,-1.5499999999999999
8,0.0
9,0.0
10,0.0
11,0.0
12,0.0
13,0.0
14,10.631176330906503
15,-2.8170567701321098
16,8.904898926660565
17,-1.7400329166638358
18,11.087721882539075
2,1, 1, 1, 0,23,45.00,60.00,Tuesday
7,-1.7
8,0.0
9,0.0
10,0.0
11,0.0
12,0.0
13,0.0
14,10.56623004667542
15,-3.12276606395599
16,8.806965695916006
17,-2.0518368307212997
18,11.031622981778959
2,1, 1, 1, 0,24, 0.00,15.00,Tuesday
7,-1.7
8,0.0
9,0.0
10,0.0
11,0.0
12,0.0
13,0.0
14,10.516226029868366
15,-3.1771506175804089
16,8.74812481814331
17,-2.1162578902727775
18,10.975454324781444
2,1, 1, 1, 0,24,15.00,30.00,Tuesday
7,-1.7
8,0.0
9,0.0
10,0.0
11,0.0
12,0.0
13,0.0
14,10.464300840061363
15,-3.232018257092606
16,8.694177949779146
17,-2.180289099719289
18,10.921914231548764
2,1, 1, 1, 0,24,30.00,45.00,Tuesday
7,-1.7
8,0.0
9,0.0
10,0.0
11,0.0
12,0.0
13,0.0
14,10.413561514430456
15,-3.2867829785790798
16,8.640159877031863
17,-2.2443230211541165
18,10.870810445436787
2,1, 1, 1, 0,24,45.00,60.00,Tuesday
7,-1.7
8,0.0
9,0.0
10,0.0
11,0.0
12,0.0
13,0.0
14,10.363657835692426
15,-3.341553225991634
16,8.587136522257879
17,-2.3081039877506557
18,10.821076071201365
End of Data
 Number of Records Written=        1152
