Program Version,EnergyPlus, Version 9.5.0-de239b2e5f, YMD=2023.02.13 19:58
1,5,Environment Title[],Latitude[deg],Longitude[deg],Time Zone[],Elevation[m]
2,8,Day of Simulation[],Month[],Day of Month[],DST Indicator[1=yes 0=no],Hour[],StartMinute[],EndMinute[],DayType
3,5,Cumulative Day of Simulation[],Month[],Day of Month[],DST Indicator[1=yes 0=no],DayType  ! When Daily Report Variables Requested
4,2,Cumulative Days of Simulation[],Month[]  ! When Monthly Report Variables Requested
5,1,Cumulative Days of Simulation[] ! When Run Period Report Variables Requested
6,1,Calendar Year of Simulation[] ! When Annual Report Variables Requested
7,1,Environment,Site Outdoor Air Drybulb Temperature [C] !TimeStep
8,1,ZONE ONE,Zone Windows Total Transmitted Solar Radiation Rate [W] !TimeStep
9,1,ZN001:WALL001,Surface Outside Face Sunlit Fraction [] !TimeStep
10,1,ZN001:WALL001,Surface Outside Face Incident Solar Radiation Rate per Area [W/m2] !TimeStep
11,1,ZN001:WALL001:WIN001,Surface Outside Face Sunlit Fraction [] !TimeStep
12,1,ZN001:WALL001:WIN001,Surface Outside Face Incident Solar Radiation Rate per Area [W/m2] !TimeStep
13,1,ZN001:WALL001:WIN001,Surface Window Transmitted Solar Radiation Rate [W] !TimeStep
14,1,ZN001:WALL001,Surface Inside Face Temperature [C] !TimeStep
15,1,ZN001:WALL001,Surface Outside Face Temperature [C] !TimeStep
16,1,ZN001:WALL001:WIN001,Surface Inside Face Temperature [C] !TimeStep
17,1,ZN001:WALL001:WIN001,Surface Outside Face Temperature [C] !TimeStep
18,1,ZONE ONE,Zone Mean Air Temperature [C] !TimeStep
End of Data Dictionary
1,RUN PERIOD 1,  41.98, -87.92,  -6.00, 201.00
2,1, 1, 1, 0, 1, 0.00,15.00,Tuesday
7,-4.324999999999999
8,0.0
9,0.0
10,0.0
11,0.0
12,0.0
13,0.0
14,1.4473081671321036
15,-5.977702732046259
16,-0.6609026093730108
17,-4.710801893949622
18,1.7847513394199777
2,1, 1, 1, 0, 1,15.00,30.00,Tuesday
7,-6.949999999999999
8,0.0
9,0.0
10,0.0
11,0.0
12,0.0
13,0.0
14,1.269149698909948
15,-8.445669696184114
16,-1.4428617210835456
17,-6.675341836073926
18,1.6945628990529232
2,1, 1, 1, 0, 1,30.00,45.00,Tuesday
7,-9.575
8,0.0
9,0.0
10,0.0
11,0.0
12,0.0
13,0.0
14,1.0672605806749982
15,-10.922227337022166
16,-2.2265417769572197
17,-8.646142200505892
18,1.568631593711788
2,1, 1, 1, 0, 1,45.00,60.00,Tuesday
7,-12.2
8,0.0
9,0.0
10,0.0
11,0.0
12,0.0
13,0.0
14,0.8496213179165538
15,-13.405249691689509
16,-3.023994736250529
17,-10.625802160781973
18,1.417146480771548
2,1, 1, 1, 0, 2, 0.00,15.00,Tuesday
7,-12.075
8,0.0
9,0.0
10,0.0
11,0.0
12,0.0
13,0.0
14,0.7906119226792029
15,-13.207036977092253
16,-3.0606353566142845
17,-10.49101284468486
18,1.281030337965905
2,1, 1, 1, 0, 2,15.00,30.00,Tuesday
7,-11.95
8,0.0
9,0.0
10,0.0
11,0.0
12,0.0
13,0.0
14,0.7161608071815888
15,-13.029821956531942
16,-3.064874214472866
17,-10.369261690215069
18,1.1793934446457808
2,1, 1, 1, 0, 2,30.00,45.00,Tuesday
7,-11.825
8,0.0
9,0.0
10,0.0
11,0.0
12,0.0
13,0.0
14,0.6601315711159239
15,-12.851309314870564
16,-3.0672352542661658
17,-10.237867410468653
18,1.1071309591335104
2,1, 1, 1, 0, 2,45.00,60.00,Tuesday
7,-11.7
8,0.0
9,0.0
10,0.0
11,0.0
12,0.0
13,0.0
14,0.6163296891907522
15,-12.672862314446935
16,-3.0575657114238767
17,-10.101464623392247
18,1.0526104121874505
2,1, 1, 1, 0, 3, 0.00,15.00,Tuesday
7,-11.549999999999999
8,0.0
9,0.0
10,0.0
11,0.0
12,0.0
13,0.0
14,0.5745943771440057
15,-12.548623890586802
16,-3.0410231814148576
17,-9.965213796723959
18,1.0061300066567585
2,1, 1, 1, 0, 3,15.00,30.00,Tuesday
7,-11.399999999999999
8,0.0
9,0.0
10,0.0
11,0.0
12,0.0
13,0.0
14,0.5365631211009921
15,-12.42583411961862
16,-3.0221678220443666
17,-9.829072304010368
18,0.9626979985591352
2,1, 1, 1, 0, 3,30.00,45.00,Tuesday
7,-11.25
8,0.0
9,0.0
10,0.0
11,0.0
12,0.0
13,0.0
14,0.4996893144118735
15,-12.304665696156663
16,-3.001440902086074
17,-9.692842618815689
18,0.9206765341011209
2,1, 1, 1, 0, 3,45.00,60.00,Tuesday
7,-11.1
8,0.0
9,0.0
10,0.0
11,0.0
12,0.0
13,0.0
14,0.46346614860870846
15,-12.185178491331913
16,-2.9800284982993618
17,-9.55690942321155
18,0.8797208154512267
2,1, 1, 1, 0, 4, 0.00,15.00,Tuesday
7,-11.1
8,0.0
9,0.0
10,0.0
11,0.0
12,0.0
13,0.0
14,0.42344643089560787
15,-12.154192096947524
16,-3.027640280075957
17,-9.58272121881032
18,0.8386467340591878
2,1, 1, 1, 0, 4,15.00,30.00,Tuesday
7,-11.1
8,0.0
9,0.0
10,0.0
11,0.0
12,0.0
13,0.0
14,0.38379795676971636
15,-12.124414062639924
16,-3.0681960203423275
17,-9.615359360783146
18,0.7970070323179254
2,1, 1, 1, 0, 4,30.00,45.00,Tuesday
7,-11.1
8,0.0
9,0.0
10,0.0
11,0.0
12,0.0
13,0.0
14,0.34389781246174308
15,-12.096291514515097
16,-3.1076672071029636
17,-9.648083643057078
18,0.754942690759194
2,1, 1, 1, 0, 4,45.00,60.00,Tuesday
7,-11.1
8,0.0
9,0.0
10,0.0
11,0.0
12,0.0
13,0.0
14,0.3038556388756258
15,-12.069686925665945
16,-3.1468349388005665
17,-9.680046452264037
18,0.7127139168598464
2,1, 1, 1, 0, 5, 0.00,15.00,Tuesday
7,-10.975
8,0.0
9,0.0
10,0.0
11,0.0
12,0.0
13,0.0
14,0.26970664177677669
15,-11.94745664558202
16,-3.137461282966683
17,-9.600155769365415
18,0.6716697659306636
2,1, 1, 1, 0, 5,15.00,30.00,Tuesday
7,-10.85
8,0.0
9,0.0
10,0.0
11,0.0
12,0.0
13,0.0
14,0.23579526319463504
15,-11.825321230001908
16,-3.1307646836093
17,-9.51270929553607
18,0.6323617081099131
2,1, 1, 1, 0, 5,30.00,45.00,Tuesday
7,-10.725
8,0.0
9,0.0
10,0.0
11,0.0
12,0.0
13,0.0
14,0.20294085099338136
15,-11.703162550589166
16,-3.1239791652670876
17,-9.424222879853403
18,0.5945538201592491
2,1, 1, 1, 0, 5,45.00,60.00,Tuesday
7,-10.6
8,0.0
9,0.0
10,0.0
11,0.0
12,0.0
13,0.0
14,0.17097868490845823
15,-11.581012977459109
16,-3.1164568410766835
17,-9.335391830778804
18,0.5578300273481466
2,1, 1, 1, 0, 6, 0.00,15.00,Tuesday
7,-10.6
8,0.0
9,0.0
10,0.0
11,0.0
12,0.0
13,0.0
14,0.13157195301542316
15,-11.581829047403993
16,-3.1440384275832686
17,-9.339607206174947
18,0.5205555492755148
2,1, 1, 1, 0, 6,15.00,30.00,Tuesday
7,-10.6
8,0.0
9,0.0
10,0.0
11,0.0
12,0.0
13,0.0
14,0.09277232236647516
15,-11.582551902328378
16,-3.173572509378687
17,-9.347313513335394
18,0.4818800274450841
2,1, 1, 1, 0, 6,30.00,45.00,Tuesday
7,-10.6
8,0.0
9,0.0
10,0.0
11,0.0
12,0.0
13,0.0
14,0.0534169257060345
15,-11.58331999821586
16,-3.2031205536035829
17,-9.355802778490102
18,0.44200368827302868
2,1, 1, 1, 0, 6,45.00,60.00,Tuesday
7,-10.6
8,0.0
9,0.0
10,0.0
11,0.0
12,0.0
13,0.0
14,0.013682586438358414
15,-11.584088544409245
16,-3.2329453261626215
17,-9.364662848840169
18,0.40144799723337556
2,1, 1, 1, 0, 7, 0.00,15.00,Tuesday
7,-10.6
8,0.0
9,0.0
10,0.0
11,0.0
12,0.0
13,0.0
14,-0.023975045405666648
15,-11.558539268203722
16,-3.274313840615207
17,-9.389976268852366
18,0.3608093224489724
2,1, 1, 1, 0, 7,15.00,30.00,Tuesday
7,-10.6
8,0.0
9,0.0
10,0.0
11,0.0
12,0.0
13,0.0
14,-0.06183231557040117
15,-11.534320551141552
16,-3.3105642166400459
17,-9.416525288526714
18,0.32053861451036888
2,1, 1, 1, 0, 7,30.00,45.00,Tuesday
7,-10.6
8,0.0
9,0.0
10,0.0
11,0.0
12,0.0
13,0.0
14,-0.09947819508545564
15,-11.511326792280633
16,-3.346140302631909
17,-9.442741922011692
18,0.280714131802625
2,1, 1, 1, 0, 7,45.00,60.00,Tuesday
7,-10.6
8,0.0
9,0.0
10,0.0
11,0.0
12,0.0
13,0.0
14,-0.1368548194504314
15,-11.489485967377922
16,-3.3811944178058299
17,-9.46819454831109
18,0.24125812864828628
2,1, 1, 1, 0, 8, 0.00,15.00,Tuesday
7,-10.45
8,0.0
9,0.0
10,0.0
11,0.0
12,0.0
13,0.0
14,-0.17494725807228257
15,-11.441892811148764
16,-3.380893434482232
17,-9.432797536600333
18,0.2019605993183271
2,1, 1, 1, 0, 8,15.00,30.00,Tuesday
7,-10.3
8,85.43058239647034
9,1.0
10,22.819555959623899
11,1.0
12,22.819555959623899
13,85.43058239647034
14,-0.10439813286676565
15,-9.768991907774094
16,-2.977683035023574
17,-9.017564062304644
18,0.178200933884811
2,1, 1, 1, 0, 8,30.00,45.00,Tuesday
7,-10.15
8,420.15097932123458
9,1.0
10,109.75755355442667
11,1.0
12,109.75755355442667
13,420.15097932123458
14,0.2624217981792352
15,-3.4099643040758136
16,-1.3468784583676552
17,-7.60299866550065
18,0.2121564981295364
2,1, 1, 1, 0, 8,45.00,60.00,Tuesday
7,-10.0
8,766.3041480948695
9,1.0
10,195.8764694434918
11,1.0
12,195.8764694434918
13,766.3041480948695
14,0.7186462032405309
15,3.080646398076609
16,0.42234636341152056
17,-6.17057168910776
18,0.308621798295574
2,1, 1, 1, 0, 9, 0.00,15.00,Tuesday
7,-9.725
8,1113.6338132228669
9,1.0
10,278.97248314719988
11,1.0
12,278.97248314719988
13,1113.6338132228669
14,1.0667749470214294
15,8.263357420830552
16,2.044436203778446
17,-4.922195516394254
18,0.4517389297582189
2,1, 1, 1, 0, 9,15.00,30.00,Tuesday
7,-9.45
8,1482.3385199745094
9,1.0
10,364.91995730569456
11,1.0
12,364.91995730569456
13,1482.3385199745094
14,1.4448420038950474
15,13.344723326577253
16,3.628875306264831
17,-3.710953161826069
18,0.6344240988949537
2,1, 1, 1, 0, 9,30.00,45.00,Tuesday
7,-9.175
8,1729.845094636268
9,1.0
10,420.35879993239237
11,1.0
12,420.35879993239237
13,1729.845094636268
14,1.704296991001863
15,16.10458479259221
16,4.649974939846572
17,-2.9595076692853015
18,0.8376555181496629
2,1, 1, 1, 0, 9,45.00,60.00,Tuesday
7,-8.9
8,1988.1110786463856
9,1.0
10,478.00138373643099
11,1.0
12,478.00138373643099
13,1988.1110786463856
14,2.0096223871327174
15,19.100362697195707
16,5.681416278825054
17,-2.1910605740042117
18,1.0523818090601989
2,1, 1, 1, 0,10, 0.00,15.00,Tuesday
7,-8.350000000000002
8,2253.1800062821159
9,1.0
10,536.9185644770597
11,1.0
12,536.9185644770597
13,2253.1800062821159
14,2.255711822619967
15,20.221333465223809
16,6.719645050623058
17,-1.4469234088134045
18,1.2809073479341294
2,1, 1, 1, 0,10,15.00,30.00,Tuesday
7,-7.800000000000001
8,2528.489565329972
9,1.0
10,598.0969199229219
11,1.0
12,598.0969199229219
13,2528.489565329972
14,2.5260594465918237
15,21.476838696961609
16,7.775020144428595
17,-0.7054827723609378
18,1.52762836905216
2,1, 1, 1, 0,10,30.00,45.00,Tuesday
7,-7.25
8,2712.3752338235269
9,1.0
10,637.6133352894237
11,1.0
12,637.6133352894237
13,2712.3752338235269
14,2.72893800193001
15,21.538897774856854
16,8.500839236219804
17,-0.21897918150426677
18,1.7780901062983444
2,1, 1, 1, 0,10,45.00,60.00,Tuesday
7,-6.7
8,2894.0470468119458
9,1.0
10,676.6412284283772
11,1.0
12,676.6412284283772
13,2894.0470468119458
14,2.9497068205691319
15,21.70094458161037
16,9.204723037983968
17,0.26355401650238266
18,2.021967428290346
2,1, 1, 1, 0,11, 0.00,15.00,Tuesday
7,-6.275
8,3072.697636052132
9,1.0
10,715.0112779846514
11,1.0
12,715.0112779846514
13,3072.697636052132
14,3.2476620851990365
15,23.79830271001554
16,9.985889432169245
17,1.0199242611996625
18,2.262919533201033
2,1, 1, 1, 0,11,15.00,30.00,Tuesday
7,-5.85
8,3247.211272189228
9,1.0
10,752.5077794605232
11,1.0
12,752.5077794605232
13,3247.211272189228
14,3.532080225163516
15,25.7332665521447
16,10.751926384745446
17,1.7563040670228248
18,2.5059315970801014
2,1, 1, 1, 0,11,30.00,45.00,Tuesday
7,-5.425
8,3200.648636865353
9,1.0
10,742.5988714321785
11,1.0
12,742.5988714321785
13,3200.648636865353
14,3.6927548816578428
15,25.585148967009827
16,10.861350262208248
17,2.01444585127922
18,2.7350605926808218
2,1, 1, 1, 0,11,45.00,60.00,Tuesday
7,-5.0
8,3131.2849253128599
9,1.0
10,727.8169025450712
11,1.0
12,727.8169025450712
13,3131.2849253128599
14,3.849609061264482
15,25.355686877365636
16,10.884186226886527
17,2.23335312497818
18,2.939022962358816
2,1, 1, 1, 0,12, 0.00,15.00,Tuesday
7,-4.575
8,3009.9587196721065
9,1.0
10,700.3759009170325
11,1.0
12,700.3759009170325
13,3009.9587196721065
14,3.9557396354916247
15,24.612884759641877
16,10.736778446022186
17,2.3675624829112396
18,3.1122740329724167
2,1, 1, 1, 0,12,15.00,30.00,Tuesday
7,-4.15
8,2918.052024174625
9,1.0
10,681.6705029034473
11,1.0
12,681.6705029034473
13,2918.052024174625
14,4.081148070854206
15,24.282199680023216
16,10.700530793298868
17,2.5895431570386338
18,3.2621703165463789
2,1, 1, 1, 0,12,30.00,45.00,Tuesday
7,-3.7249999999999998
8,2559.074832607672
9,1.0
10,602.01865277251
11,1.0
12,602.01865277251
13,2559.074832607672
14,3.995382392504392
15,21.25383561361454
16,9.809249489448689
17,2.219763968881466
18,3.36983645889507
2,1, 1, 1, 0,12,45.00,60.00,Tuesday
7,-3.3
8,2088.2823239097608
9,1.0
10,493.55004396206007
11,1.0
12,493.55004396206007
13,2088.2823239097608
14,3.8154023456038494
15,17.07513246595085
16,8.42377011896508
17,1.5315494605525828
18,3.415634331330426
2,1, 1, 1, 0,13, 0.00,15.00,Tuesday
7,-3.0249999999999996
8,1719.307898107924
9,1.0
10,412.335026418112
11,1.0
12,412.335026418112
13,1719.307898107924
14,3.6882868378811599
15,14.23020631058675
16,7.364807828798575
17,1.0680602540088558
18,3.4131334817503284
2,1, 1, 1, 0,13,15.00,30.00,Tuesday
7,-2.75
8,1255.0352031141677
9,1.0
10,305.94037763660148
11,1.0
12,305.94037763660148
13,1255.0352031141677
14,3.4243929141395155
15,10.056698854322049
16,5.873952672725181
17,0.30315723910428007
18,3.370006579326901
2,1, 1, 1, 0,13,30.00,45.00,Tuesday
7,-2.475
8,1143.631124766964
9,1.0
10,281.0763483922329
11,1.0
12,281.0763483922329
13,1143.631124766964
14,3.410502896127554
15,9.543203025556283
16,5.570513459910671
17,0.36681677766421219
18,3.3163964688410085
2,1, 1, 1, 0,13,45.00,60.00,Tuesday
7,-2.2
8,1034.5566840209838
9,1.0
10,256.7721209415886
11,1.0
12,256.7721209415886
13,1034.5566840209838
14,3.3802442738043174
15,8.935852015695885
16,5.318437501543144
17,0.4484098933299947
18,3.271663529612636
2,1, 1, 1, 0,14, 0.00,15.00,Tuesday
7,-1.9250000000000003
8,843.7523747322434
9,1.0
10,210.73276284570657
11,1.0
12,210.73276284570657
13,843.7523747322434
14,3.273273443808757
15,7.38738431052581
16,4.691869210026027
17,0.25910797174799429
18,3.2318390388528375
2,1, 1, 1, 0,14,15.00,30.00,Tuesday
7,-1.6500000000000002
8,747.2938281273458
9,1.0
10,189.38488290342594
11,1.0
12,189.38488290342594
13,747.2938281273458
14,3.2497082582623277
15,6.9804436457918659
16,4.441225466926312
17,0.32408211181621029
18,3.197306792296889
2,1, 1, 1, 0,14,30.00,45.00,Tuesday
7,-1.375
8,713.0729639805293
9,1.0
10,179.3940297802914
11,1.0
12,179.3940297802914
13,713.0729639805293
14,3.251883309865592
15,7.100707741045536
16,4.389160149461645
17,0.5174076248464417
18,3.170181194578203
2,1, 1, 1, 0,14,45.00,60.00,Tuesday
7,-1.1
8,678.1455634441722
9,1.0
10,169.43349014176136
11,1.0
12,169.43349014176136
13,678.1455634441722
14,3.251367646405818
15,7.197913189112959
16,4.334358714399059
17,0.7077286172218464
18,3.1506258835682066
2,1, 1, 1, 0,15, 0.00,15.00,Tuesday
7,-1.1
8,713.0254278528427
9,1.0
10,178.15692317953907
11,1.0
12,178.15692317953907
13,713.0254278528427
14,3.302054822776874
15,8.012239768653393
16,4.499025199176685
17,0.8663071384617638
18,3.141161912533624
2,1, 1, 1, 0,15,15.00,30.00,Tuesday
7,-1.1
8,669.3332475303355
9,1.0
10,166.40516310952945
11,1.0
12,166.40516310952945
13,669.3332475303355
14,3.265035880813721
15,7.649047944014225
16,4.324319457816614
17,0.7756337144886629
18,3.135536344271707
2,1, 1, 1, 0,15,30.00,45.00,Tuesday
7,-1.1
8,563.2430159033937
9,1.0
10,140.8967369711617
11,1.0
12,140.8967369711617
13,563.2430159033937
14,3.170259153110924
15,6.441372911202396
16,3.8830193461700448
17,0.479198012202005
18,3.123682677785446
2,1, 1, 1, 0,15,45.00,60.00,Tuesday
7,-1.1
8,462.57460658230596
9,1.0
10,116.57355796743004
11,1.0
12,116.57355796743004
13,462.57460658230596
14,3.076798171127988
15,5.229338906463831
16,3.4308182096360726
17,0.17378755549236758
18,3.0970410108066588
2,1, 1, 1, 0,16, 0.00,15.00,Tuesday
7,-1.1
8,366.4201537001238
9,1.0
10,93.14939272689483
11,1.0
12,93.14939272689483
13,366.4201537001238
14,2.9807764179655695
15,4.170192412152303
16,2.9968142150609085
17,-0.06693103489948271
18,3.0565611992886998
2,1, 1, 1, 0,16,15.00,30.00,Tuesday
7,-1.1
8,226.98826256185778
9,1.0
10,57.94047897402063
11,1.0
12,57.94047897402063
13,226.98826256185778
14,2.815219289695404
15,2.041523262389996
16,2.3317665325865279
17,-0.51054319183811
18,2.9977692528462778
2,1, 1, 1, 0,16,30.00,45.00,Tuesday
7,-1.1
8,175.67242770507284
9,1.0
10,45.38251793443488
11,1.0
12,45.38251793443488
13,175.67242770507284
14,2.756988281846694
15,1.4246020355377383
16,2.0837792102341838
17,-0.6355236275380776
18,2.928289080728542
2,1, 1, 1, 0,16,45.00,60.00,Tuesday
7,-1.1
8,122.45283212623183
9,1.0
10,32.02625108222755
11,1.0
12,32.02625108222755
13,122.45283212623183
14,2.6644360284740866
15,0.5525216562452949
16,1.8320637762345769
17,-0.7787587148471857
18,2.854953654587426
2,1, 1, 1, 0,17, 0.00,15.00,Tuesday
7,-1.1
8,67.11026965188977
9,1.0
10,17.762198626050539
11,1.0
12,17.762198626050539
13,67.11026965188977
14,2.542593083195205
15,-0.7106380139738369
16,1.5081431500690883
17,-1.0458239957386582
18,2.775198853887072
2,1, 1, 1, 0,17,15.00,30.00,Tuesday
7,-1.1
8,0.0
9,0.0
10,0.0
11,0.0
12,0.0
13,0.0
14,2.371580406691325
15,-2.5531032774634196
16,1.0971006030442823
17,-1.4164299117949782
18,2.679709598724803
2,1, 1, 1, 0,17,30.00,45.00,Tuesday
7,-1.1
8,0.0
9,0.0
10,0.0
11,0.0
12,0.0
13,0.0
14,2.324701759474906
15,-2.693940008063905
16,1.0152794970719015
17,-1.4656371802127524
18,2.5846349069991785
2,1, 1, 1, 0,17,45.00,60.00,Tuesday
7,-1.1
8,0.0
9,0.0
10,0.0
11,0.0
12,0.0
13,0.0
14,2.2628984792663457
15,-2.894377322996855
16,0.9617274886686573
17,-1.5110258790637659
18,2.504323749509554
2,1, 1, 1, 0,18, 0.00,15.00,Tuesday
7,-1.25
8,0.0
9,0.0
10,0.0
11,0.0
12,0.0
13,0.0
14,2.2125841504584744
15,-3.0410103982470786
16,0.8725397556138432
17,-1.6440913192035396
18,2.4410428979177705
2,1, 1, 1, 0,18,15.00,30.00,Tuesday
7,-1.4
8,0.0
9,0.0
10,0.0
11,0.0
12,0.0
13,0.0
14,2.1672584580891276
15,-3.1933891657120498
16,0.7979011914310377
17,-1.765937371045709
18,2.390649210770157
2,1, 1, 1, 0,18,30.00,45.00,Tuesday
7,-1.5499999999999999
8,0.0
9,0.0
10,0.0
11,0.0
12,0.0
13,0.0
14,2.126344553884417
15,-3.345137586301203
16,0.7271506442760938
17,-1.8867622654971684
18,2.3481006450073655
2,1, 1, 1, 0,18,45.00,60.00,Tuesday
7,-1.7
8,0.0
9,0.0
10,0.0
11,0.0
12,0.0
13,0.0
14,2.087795889809864
15,-3.497059376143732
16,0.65946036058142
17,-2.0062588503942608
18,2.3098356326561917
2,1, 1, 1, 0,19, 0.00,15.00,Tuesday
7,-1.825
8,0.0
9,0.0
10,0.0
11,0.0
12,0.0
13,0.0
14,2.0780057496356099
15,-3.33531417630402
16,0.6171418064177487
17,-2.0636969408636789
18,2.2776897737114178
2,1, 1, 1, 0,19,15.00,30.00,Tuesday
7,-1.9500000000000002
8,0.0
9,0.0
10,0.0
11,0.0
12,0.0
13,0.0
14,2.0667226283292399
15,-3.2566783260941118
16,0.5755461309684051
17,-2.13730019540219
18,2.2531559696201377
2,1, 1, 1, 0,19,30.00,45.00,Tuesday
7,-2.075
8,0.0
9,0.0
10,0.0
11,0.0
12,0.0
13,0.0
14,2.05031921364961
15,-3.327241522240672
16,0.5314164415233336
17,-2.227357282347157
18,2.2344865689774768
2,1, 1, 1, 0,19,45.00,60.00,Tuesday
7,-2.2
8,0.0
9,0.0
10,0.0
11,0.0
12,0.0
13,0.0
14,2.037168431116498
15,-3.2944772865513416
16,0.4906040702074961
17,-2.312161097606406
18,2.218627159768492
2,1, 1, 1, 0,20, 0.00,15.00,Tuesday
7,-1.9250000000000003
8,0.0
9,0.0
10,0.0
11,0.0
12,0.0
13,0.0
14,2.040529818309904
15,-2.9906570127183764
16,0.5727471588372168
17,-2.11767580069278
18,2.2059954896885127
2,1, 1, 1, 0,20,15.00,30.00,Tuesday
7,-1.6500000000000002
8,0.0
9,0.0
10,0.0
11,0.0
12,0.0
13,0.0
14,2.044634456077202
15,-2.6900815331520788
16,0.6437852857241069
17,-1.8927829562018133
18,2.196898576498891
2,1, 1, 1, 0,20,30.00,45.00,Tuesday
7,-1.375
8,0.0
9,0.0
10,0.0
11,0.0
12,0.0
13,0.0
14,2.050401916755642
15,-2.390922352131962
16,0.721556199373083
17,-1.6735247224165733
18,2.1908945527127998
2,1, 1, 1, 0,20,45.00,60.00,Tuesday
7,-1.1
8,0.0
9,0.0
10,0.0
11,0.0
12,0.0
13,0.0
14,2.057809972576887
15,-2.093127215031507
16,0.8018452089912671
17,-1.4522414663731525
18,2.1872742730472898
2,1, 1, 1, 0,21, 0.00,15.00,Tuesday
7,-1.25
8,0.0
9,0.0
10,0.0
11,0.0
12,0.0
13,0.0
14,2.0192041569329159
15,-2.3851893080426485
16,0.7401666511989333
17,-1.5761844637850118
18,2.179248481922722
2,1, 1, 1, 0,21,15.00,30.00,Tuesday
7,-1.4
8,0.0
9,0.0
10,0.0
11,0.0
12,0.0
13,0.0
14,1.981362725058172
15,-2.60747351521776
16,0.6793566031755063
17,-1.6975226411133804
18,2.1618641586869584
2,1, 1, 1, 0,21,30.00,45.00,Tuesday
7,-1.5499999999999999
8,0.0
9,0.0
10,0.0
11,0.0
12,0.0
13,0.0
14,1.929352672339886
15,-2.9660732296757499
16,0.6100369951388984
17,-1.8336455885989836
18,2.1337025209813604
2,1, 1, 1, 0,21,45.00,60.00,Tuesday
7,-1.7
8,0.0
9,0.0
10,0.0
11,0.0
12,0.0
13,0.0
14,1.8720734857145723
15,-3.4342020578214389
16,0.5289511535920042
17,-1.989449303363699
18,2.096554716343907
2,1, 1, 1, 0,22, 0.00,15.00,Tuesday
7,-1.5499999999999999
8,0.0
9,0.0
10,0.0
11,0.0
12,0.0
13,0.0
14,1.889066654069399
15,-2.9274071219514194
16,0.5626353459114739
17,-1.8571304222901973
18,2.0644066480801226
2,1, 1, 1, 0,22,15.00,30.00,Tuesday
7,-1.4
8,0.0
9,0.0
10,0.0
11,0.0
12,0.0
13,0.0
14,1.8979380188145716
15,-2.5841880556004659
16,0.6101448709055148
17,-1.7224721603528793
18,2.0452164000545696
2,1, 1, 1, 0,22,30.00,45.00,Tuesday
7,-1.25
8,0.0
9,0.0
10,0.0
11,0.0
12,0.0
13,0.0
14,1.904279124585058
15,-2.358262979107792
16,0.6537143887068169
17,-1.6001398274950134
18,2.0372325427824435
2,1, 1, 1, 0,22,45.00,60.00,Tuesday
7,-1.1
8,0.0
9,0.0
10,0.0
11,0.0
12,0.0
13,0.0
14,1.9144429444017353
15,-2.065191956390257
16,0.7074123413711959
17,-1.4607625929568258
18,2.035511958751192
2,1, 1, 1, 0,23, 0.00,15.00,Tuesday
7,-1.25
8,0.0
9,0.0
10,0.0
11,0.0
12,0.0
13,0.0
14,1.8758026900415024
15,-2.3689829786705358
16,0.5951787905639776
17,-1.7150653414561248
18,2.0295907539499975
2,1, 1, 1, 0,23,15.00,30.00,Tuesday
7,-1.4
8,0.0
9,0.0
10,0.0
11,0.0
12,0.0
13,0.0
14,1.8390056774232409
15,-2.673533577580691
16,0.4762489710353748
17,-1.9890115940321494
18,2.0136457288400115
2,1, 1, 1, 0,23,30.00,45.00,Tuesday
7,-1.5499999999999999
8,0.0
9,0.0
10,0.0
11,0.0
12,0.0
13,0.0
14,1.798338919453415
15,-2.9786808314185979
16,0.3564723508179668
17,-2.263491987831003
18,1.9880897782882588
2,1, 1, 1, 0,23,45.00,60.00,Tuesday
7,-1.7
8,0.0
9,0.0
10,0.0
11,0.0
12,0.0
13,0.0
14,1.7538692331407049
15,-3.2841847702405109
16,0.23365333759807073
17,-2.5387893985835037
18,1.9556067841741636
2,1, 1, 1, 0,24, 0.00,15.00,Tuesday
7,-1.7
8,0.0
9,0.0
10,0.0
11,0.0
12,0.0
13,0.0
14,1.7277819215886146
15,-3.337897205013683
16,0.19212530054232958
17,-2.5982523413348419
18,1.9219986717220732
2,1, 1, 1, 0,24,15.00,30.00,Tuesday
7,-1.7
8,0.0
9,0.0
10,0.0
11,0.0
12,0.0
13,0.0
14,1.6985612973597828
15,-3.3924221336505564
16,0.1534136533846322
17,-2.6554128600428728
18,1.8905514826302635
2,1, 1, 1, 0,24,30.00,45.00,Tuesday
7,-1.7
8,0.0
9,0.0
10,0.0
11,0.0
12,0.0
13,0.0
14,1.670128511773426
15,-3.44680067862299
16,0.11415008338474309
17,-2.712673620261455
18,1.8615057047884399
2,1, 1, 1, 0,24,45.00,60.00,Tuesday
7,-1.7
8,0.0
9,0.0
10,0.0
11,0.0
12,0.0
13,0.0
14,1.6423755065714543
15,-3.5011782972199017
16,0.07556789355896854
17,-2.7696282011767154
18,1.8339840822026604
End of Data
 Number of Records Written=        1152
