Program Version,EnergyPlus, Version 9.5.0-de239b2e5f, YMD=2023.02.13 19:58
1,5,Environment Title[],Latitude[deg],Longitude[deg],Time Zone[],Elevation[m]
2,8,Day of Simulation[],Month[],Day of Month[],DST Indicator[1=yes 0=no],Hour[],StartMinute[],EndMinute[],DayType
3,5,Cumulative Day of Simulation[],Month[],Day of Month[],DST Indicator[1=yes 0=no],DayType  ! When Daily Report Variables Requested
4,2,Cumulative Days of Simulation[],Month[]  ! When Monthly Report Variables Requested
5,1,Cumulative Days of Simulation[] ! When Run Period Report Variables Requested
6,1,Calendar Year of Simulation[] ! When Annual Report Variables Requested
7,1,Environment,Site Outdoor Air Drybulb Temperature [C] !TimeStep
8,1,ZONE ONE,Zone Windows Total Transmitted Solar Radiation Rate [W] !TimeStep
9,1,ZN001:WALL001,Surface Outside Face Sunlit Fraction [] !TimeStep
10,1,ZN001:WALL001,Surface Outside Face Incident Solar Radiation Rate per Area [W/m2] !TimeStep
11,1,ZN001:WALL001:WIN001,Surface Outside Face Sunlit Fraction [] !TimeStep
12,1,ZN001:WALL001:WIN001,Surface Outside Face Incident Solar Radiation Rate per Area [W/m2] !TimeStep
13,1,ZN001:WALL001:WIN001,Surface Window Transmitted Solar Radiation Rate [W] !TimeStep
14,1,ZN001:WALL001,Surface Inside Face Temperature [C] !TimeStep
15,1,ZN001:WALL001,Surface Outside Face Temperature [C] !TimeStep
16,1,ZN001:WALL001:WIN001,Surface Inside Face Temperature [C] !TimeStep
17,1,ZN001:WALL001:WIN001,Surface Outside Face Temperature [C] !TimeStep
18,1,ZONE ONE,Zone Mean Air Temperature [C] !TimeStep
End of Data Dictionary
1,RUN PERIOD 1,  41.98, -87.92,  -6.00, 201.00
2,1, 1, 1, 0, 1, 0.00,15.00,Tuesday
7,-4.324999999999999
8,0.0
9,0.0
10,0.0
11,0.0
12,0.0
13,0.0
14,1.186609819871974
15,-5.982506444055024
16,-1.1546065271917315
17,-4.54782345442004
18,1.513437245375458
2,1, 1, 1, 0, 1,15.00,30.00,Tuesday
7,-6.949999999999999
8,0.0
9,0.0
10,0.0
11,0.0
12,0.0
13,0.0
14,1.006638873636981
15,-8.450495411067735
16,-2.0256772527236537
17,-6.446506410241966
18,1.4205972656858284
2,1, 1, 1, 0, 1,30.00,45.00,Tuesday
7,-9.575
8,0.0
9,0.0
10,0.0
11,0.0
12,0.0
13,0.0
14,0.8018933755986171
15,-10.927197626005992
16,-2.8984115416720899
17,-8.351309327645197
18,1.290519846503609
2,1, 1, 1, 0, 1,45.00,60.00,Tuesday
7,-12.2
8,0.0
9,0.0
10,0.0
11,0.0
12,0.0
13,0.0
14,0.5807717407801081
15,-13.410359143627347
16,-3.784740125965243
17,-10.265440302196112
18,1.1338687984303635
2,1, 1, 1, 0, 2, 0.00,15.00,Tuesday
7,-12.075
8,0.0
9,0.0
10,0.0
11,0.0
12,0.0
13,0.0
14,0.5199037171968499
15,-13.212249320157918
16,-3.802291748572827
17,-10.149956115834698
18,0.9936543007262063
2,1, 1, 1, 0, 2,15.00,30.00,Tuesday
7,-11.95
8,0.0
9,0.0
10,0.0
11,0.0
12,0.0
13,0.0
14,0.44356733354573527
15,-13.035058873558988
16,-3.8030407761162907
17,-10.027522363965318
18,0.889459693154525
2,1, 1, 1, 0, 2,30.00,45.00,Tuesday
7,-11.825
8,0.0
9,0.0
10,0.0
11,0.0
12,0.0
13,0.0
14,0.3864452468794987
15,-12.856540364142039
16,-3.797981644872607
17,-9.903465427869719
18,0.8158080531059314
2,1, 1, 1, 0, 2,45.00,60.00,Tuesday
7,-11.7
8,0.0
9,0.0
10,0.0
11,0.0
12,0.0
13,0.0
14,0.34199152170330995
15,-12.678087044040585
16,-3.780283370531947
17,-9.774638286508719
18,0.7605613619586745
2,1, 1, 1, 0, 3, 0.00,15.00,Tuesday
7,-11.549999999999999
8,0.0
9,0.0
10,0.0
11,0.0
12,0.0
13,0.0
14,0.299838911115451
15,-12.553991648070822
16,-3.7535898518710839
17,-9.64114853038842
18,0.7137036316216185
2,1, 1, 1, 0, 3,15.00,30.00,Tuesday
7,-11.399999999999999
8,0.0
9,0.0
10,0.0
11,0.0
12,0.0
13,0.0
14,0.2615199027557482
15,-12.431351082233434
16,-3.724693143156969
17,-9.507424343600406
18,0.6700833402083747
2,1, 1, 1, 0, 3,30.00,45.00,Tuesday
7,-11.25
8,0.0
9,0.0
10,0.0
11,0.0
12,0.0
13,0.0
14,0.2244402246125476
15,-12.310339823070957
16,-3.6939929020642809
17,-9.373537721492085
18,0.627988594233056
2,1, 1, 1, 0, 3,45.00,60.00,Tuesday
7,-11.1
8,0.0
9,0.0
10,0.0
11,0.0
12,0.0
13,0.0
14,0.1880680234101261
15,-12.191017323759711
16,-3.6626357999488734
17,-9.239959270039322
18,0.587039887696138
2,1, 1, 1, 0, 4, 0.00,15.00,Tuesday
7,-11.1
8,0.0
9,0.0
10,0.0
11,0.0
12,0.0
13,0.0
14,0.14777152596737296
15,-12.15986950301638
16,-3.71256512797072
17,-9.270742097003506
18,0.5458622981386575
2,1, 1, 1, 0, 4,15.00,30.00,Tuesday
7,-11.1
8,0.0
9,0.0
10,0.0
11,0.0
12,0.0
13,0.0
14,0.10781669330492622
15,-12.12994086252719
16,-3.754933759847063
17,-9.307920115157913
18,0.5039436611524251
2,1, 1, 1, 0, 4,30.00,45.00,Tuesday
7,-11.1
8,0.0
9,0.0
10,0.0
11,0.0
12,0.0
13,0.0
14,0.06754008963099577
15,-12.10167689901747
16,-3.7960432015537437
17,-9.345263864209244
18,0.4614657674151775
2,1, 1, 1, 0, 4,45.00,60.00,Tuesday
7,-11.1
8,0.0
9,0.0
10,0.0
11,0.0
12,0.0
13,0.0
14,0.027069983875256763
15,-12.074937948105463
16,-3.8367819237042228
17,-9.3818516444029
18,0.41875020924499126
2,1, 1, 1, 0, 5, 0.00,15.00,Tuesday
7,-10.975
8,0.0
9,0.0
10,0.0
11,0.0
12,0.0
13,0.0
14,-0.007405256668031873
15,-11.952710236698993
16,-3.82135467067161
17,-9.30638736939187
18,0.37729248194479417
2,1, 1, 1, 0, 5,15.00,30.00,Tuesday
7,-10.85
8,0.0
9,0.0
10,0.0
11,0.0
12,0.0
13,0.0
14,-0.041611009246769598
15,-11.830576817414718
16,-3.8087858731321377
17,-9.223716261656023
18,0.3376975874601321
2,1, 1, 1, 0, 5,30.00,45.00,Tuesday
7,-10.725
8,0.0
9,0.0
10,0.0
11,0.0
12,0.0
13,0.0
14,-0.07470087595690166
15,-11.708418426141096
16,-3.7962008287264554
17,-9.139918930086367
18,0.29970746246322879
2,1, 1, 1, 0, 5,45.00,60.00,Tuesday
7,-10.6
8,0.0
9,0.0
10,0.0
11,0.0
12,0.0
13,0.0
14,-0.10684948857139504
15,-11.586268630735918
16,-3.782890585512746
17,-9.055707119129807
18,0.2628670696126867
2,1, 1, 1, 0, 6, 0.00,15.00,Tuesday
7,-10.6
8,0.0
9,0.0
10,0.0
11,0.0
12,0.0
13,0.0
14,-0.14651514942202405
15,-11.587093122324858
16,-3.8090313879946509
17,-9.061183547256121
18,0.22545495658904528
2,1, 1, 1, 0, 6,15.00,30.00,Tuesday
7,-10.6
8,0.0
9,0.0
10,0.0
11,0.0
12,0.0
13,0.0
14,-0.1855754071291696
15,-11.587821256087049
16,-3.8372266898669524
17,-9.070113867250428
18,0.18658629207866724
2,1, 1, 1, 0, 6,30.00,45.00,Tuesday
7,-10.6
8,0.0
9,0.0
10,0.0
11,0.0
12,0.0
13,0.0
14,-0.2252067906944643
15,-11.588595450271362
16,-3.8654838098497068
17,-9.07981122737499
18,0.146470326459594
2,1, 1, 1, 0, 6,45.00,60.00,Tuesday
7,-10.6
8,0.0
9,0.0
10,0.0
11,0.0
12,0.0
13,0.0
14,-0.2652286031077972
15,-11.58937014866468
16,-3.8940117116510466
17,-9.089890417876746
18,0.10565008964693776
2,1, 1, 1, 0, 7, 0.00,15.00,Tuesday
7,-10.6
8,0.0
9,0.0
10,0.0
11,0.0
12,0.0
13,0.0
14,-0.3031995498098536
15,-11.563687252839325
16,-3.93711118462096
17,-9.119726411334569
18,0.0646972184375591
2,1, 1, 1, 0, 7,15.00,30.00,Tuesday
7,-10.6
8,0.0
9,0.0
10,0.0
11,0.0
12,0.0
13,0.0
14,-0.34138186497687986
15,-11.539343843300405
16,-3.974653725594976
17,-9.150460627558346
18,0.02406111126522702
2,1, 1, 1, 0, 7,30.00,45.00,Tuesday
7,-10.6
8,0.0
9,0.0
10,0.0
11,0.0
12,0.0
13,0.0
14,-0.3793735810965946
15,-11.516231519622649
16,-4.011386228471451
17,-9.180848839175099
18,-0.016162639787390737
2,1, 1, 1, 0, 7,45.00,60.00,Tuesday
7,-10.6
8,0.0
9,0.0
10,0.0
11,0.0
12,0.0
13,0.0
14,-0.4171087814464287
15,-11.494277687315928
16,-4.047528312141651
17,-9.210415686739055
18,-0.05603441899668775
2,1, 1, 1, 0, 8, 0.00,15.00,Tuesday
7,-10.45
8,0.0
9,0.0
10,0.0
11,0.0
12,0.0
13,0.0
14,-0.45554128511322247
15,-11.44681071044129
16,-4.044817723038591
17,-9.163453007342412
18,-0.09569421073022092
2,1, 1, 1, 0, 8,15.00,30.00,Tuesday
7,-10.3
8,85.43058239647034
9,1.0
10,22.819555959623899
11,1.0
12,22.819555959623899
13,85.43058239647034
14,-0.38457680426819587
15,-9.773900757052822
16,-3.6267148448515629
17,-8.74560395666839
18,-0.11956862889201132
2,1, 1, 1, 0, 8,30.00,45.00,Tuesday
7,-10.15
8,420.15097932123458
9,1.0
10,109.75755355442667
11,1.0
12,109.75755355442667
13,420.15097932123458
14,-0.015023282814018213
15,-3.4153341852151275
16,-1.972216517296829
17,-7.281946474344977
18,-0.08516492793251862
2,1, 1, 1, 0, 8,45.00,60.00,Tuesday
7,-10.0
8,766.3041480948695
9,1.0
10,195.8764694434918
11,1.0
12,195.8764694434918
13,766.3041480948695
14,0.43720751627521206
15,3.0727808078490019
16,-0.21484756786787785
17,-5.804451618557039
18,0.013178419361310121
2,1, 1, 1, 0, 9, 0.00,15.00,Tuesday
7,-9.725
8,1113.6338132228669
9,1.0
10,278.97248314719988
11,1.0
12,278.97248314719988
13,1113.6338132228669
14,0.790304227751268
15,8.259259007054267
16,1.4654617104778254
17,-4.499959147148843
18,0.1571332911819868
2,1, 1, 1, 0, 9,15.00,30.00,Tuesday
7,-9.45
8,1482.3385199745094
9,1.0
10,364.91995730569456
11,1.0
12,364.91995730569456
13,1482.3385199745094
14,1.167032952689211
15,13.34035184935331
16,3.0754738322891059
17,-3.2300408139260528
18,0.3400151990865066
2,1, 1, 1, 0, 9,30.00,45.00,Tuesday
7,-9.175
8,1729.845094636268
9,1.0
10,420.35879993239237
11,1.0
12,420.35879993239237
13,1729.845094636268
14,1.4271399389514726
15,16.10052241623781
16,4.10625432412337
17,-2.4484517025142624
18,0.5430528325931208
2,1, 1, 1, 0, 9,45.00,60.00,Tuesday
7,-8.9
8,1988.1110786463856
9,1.0
10,478.00138373643099
11,1.0
12,478.00138373643099
13,1988.1110786463856
14,1.7324647530576563
15,19.096398663450065
16,5.150233727700993
17,-1.6488106414338973
18,0.7574312497974075
2,1, 1, 1, 0,10, 0.00,15.00,Tuesday
7,-8.350000000000002
8,2253.1800062821159
9,1.0
10,536.9185644770597
11,1.0
12,536.9185644770597
13,2253.1800062821159
14,1.9783402515779316
15,20.217732113053655
16,6.1874308732076319
17,-0.8969406602795971
18,0.9849703847083674
2,1, 1, 1, 0,10,15.00,30.00,Tuesday
7,-7.800000000000001
8,2528.489565329972
9,1.0
10,598.0969199229219
11,1.0
12,598.0969199229219
13,2528.489565329972
14,2.2482398505477434
15,21.47347528666247
16,7.24122922804122
17,-0.14747805704269013
18,1.2308610814796855
2,1, 1, 1, 0,10,30.00,45.00,Tuesday
7,-7.25
8,2712.3752338235269
9,1.0
10,637.6133352894237
11,1.0
12,637.6133352894237
13,2712.3752338235269
14,2.450703197293725
15,21.535772931448677
16,7.958740502783826
17,0.33499641079924916
18,1.480659369839808
2,1, 1, 1, 0,10,45.00,60.00,Tuesday
7,-6.7
8,2894.0470468119458
9,1.0
10,676.6412284283772
11,1.0
12,676.6412284283772
13,2894.0470468119458
14,2.671147292251437
15,21.698010076310056
16,8.656019093031091
17,0.8132369029061692
18,1.7239011431768992
2,1, 1, 1, 0,11, 0.00,15.00,Tuesday
7,-6.275
8,3072.697636052132
9,1.0
10,715.0112779846514
11,1.0
12,715.0112779846514
13,3072.697636052132
14,2.969160064195219
15,23.79534728987226
16,9.456507365408072
17,1.5815783570697022
18,1.964598620056096
2,1, 1, 1, 0,11,15.00,30.00,Tuesday
7,-5.85
8,3247.211272189228
9,1.0
10,752.5077794605232
11,1.0
12,752.5077794605232
13,3247.211272189228
14,3.2536866395547645
15,25.730343429344527
16,10.239480148926987
17,2.3307847493721285
18,2.207864686070531
2,1, 1, 1, 0,11,30.00,45.00,Tuesday
7,-5.425
8,3200.648636865353
9,1.0
10,742.5988714321785
11,1.0
12,742.5988714321785
13,3200.648636865353
14,3.4146638772818949
15,25.582265084640647
16,10.354877787795488
17,2.5782233740454219
18,2.4375224993575976
2,1, 1, 1, 0,11,45.00,60.00,Tuesday
7,-5.0
8,3131.2849253128599
9,1.0
10,727.8169025450712
11,1.0
12,727.8169025450712
13,3131.2849253128599
14,3.5719950090546317
15,25.352804059734209
16,10.384901229834214
17,2.783568179981671
18,2.6421070295495574
2,1, 1, 1, 0,12, 0.00,15.00,Tuesday
7,-4.575
8,3009.9587196721065
9,1.0
10,700.3759009170325
11,1.0
12,700.3759009170325
13,3009.9587196721065
14,3.6786495623512285
15,24.610007554515105
16,10.24511099598135
17,2.896687315192821
18,2.8159993143856596
2,1, 1, 1, 0,12,15.00,30.00,Tuesday
7,-4.15
8,2918.052024174625
9,1.0
10,681.6705029034473
11,1.0
12,681.6705029034473
13,2918.052024174625
14,3.804544895292274
15,24.279316618301917
16,10.218892092193756
17,3.1014374477500725
18,2.96658991996824
2,1, 1, 1, 0,12,30.00,45.00,Tuesday
7,-3.7249999999999998
8,2559.074832607672
9,1.0
10,602.01865277251
11,1.0
12,602.01865277251
13,2559.074832607672
14,3.7193019306628707
15,21.250975609441818
16,9.326057251993518
17,2.6829959302916679
18,3.0748091854060228
2,1, 1, 1, 0,12,45.00,60.00,Tuesday
7,-3.3
8,2088.2823239097608
9,1.0
10,493.55004396206007
11,1.0
12,493.55004396206007
13,2088.2823239097608
14,3.540349659973587
15,17.072272732670404
16,7.936949451107694
17,1.9304208060610222
18,3.120792698807879
2,1, 1, 1, 0,13, 0.00,15.00,Tuesday
7,-3.0249999999999996
8,1719.307898107924
9,1.0
10,412.335026418112
11,1.0
12,412.335026418112
13,1719.307898107924
14,3.4146694106436556
15,14.227296144803079
16,6.883684358030109
17,1.418044434048852
18,3.1179879259573437
2,1, 1, 1, 0,13,15.00,30.00,Tuesday
7,-2.75
8,1255.0352031141677
9,1.0
10,305.94037763660148
11,1.0
12,305.94037763660148
13,1255.0352031141677
14,3.151513356380427
15,10.053859970775874
16,5.390808944962146
17,0.5889529632884774
18,3.074584681220319
2,1, 1, 1, 0,13,30.00,45.00,Tuesday
7,-2.475
8,1143.631124766964
9,1.0
10,281.0763483922329
11,1.0
12,281.0763483922329
13,1143.631124766964
14,3.1375407827709549
15,9.540370345741757
16,5.1063338928196349
17,0.631893042115621
18,3.021504825709685
2,1, 1, 1, 0,13,45.00,60.00,Tuesday
7,-2.2
8,1034.5566840209838
9,1.0
10,256.7721209415886
11,1.0
12,256.7721209415886
13,1034.5566840209838
14,3.107908680604577
15,8.932772970864845
16,4.868184184899405
17,0.6930045392034572
18,2.9765033206738527
2,1, 1, 1, 0,14, 0.00,15.00,Tuesday
7,-1.9250000000000003
8,843.7523747322434
9,1.0
10,210.73276284570657
11,1.0
12,210.73276284570657
13,843.7523747322434
14,3.0021167532120298
15,7.384360595411119
16,4.252970951159341
17,0.47305282851527866
18,2.936978236221567
2,1, 1, 1, 0,14,15.00,30.00,Tuesday
7,-1.6500000000000002
8,747.2938281273458
9,1.0
10,189.38488290342594
11,1.0
12,189.38488290342594
13,747.2938281273458
14,2.9791316154883296
15,6.977346608311613
16,4.018401746075483
17,0.5214450529742862
18,2.9030843194929045
2,1, 1, 1, 0,14,30.00,45.00,Tuesday
7,-1.375
8,713.0729639805293
9,1.0
10,179.3940297802914
11,1.0
12,179.3940297802914
13,713.0729639805293
14,2.982118150620289
15,7.097134680135019
16,3.984153714971171
17,0.705580185216661
18,2.8772214369146198
2,1, 1, 1, 0,14,45.00,60.00,Tuesday
7,-1.1
8,678.1455634441722
9,1.0
10,169.43349014176136
11,1.0
12,169.43349014176136
13,678.1455634441722
14,2.9810729851502075
15,7.194214681782661
16,3.9471724144027577
17,0.8860802969756492
18,2.859210754295292
2,1, 1, 1, 0,15, 0.00,15.00,Tuesday
7,-1.1
8,713.0254278528427
9,1.0
10,178.15692317953907
11,1.0
12,178.15692317953907
13,713.0254278528427
14,3.032130295043122
15,8.00832186551289
16,4.1182234916342399
17,1.0533188120855357
18,2.8511983646552396
2,1, 1, 1, 0,15,15.00,30.00,Tuesday
7,-1.1
8,669.3332475303355
9,1.0
10,166.40516310952945
11,1.0
12,166.40516310952945
13,669.3332475303355
14,2.9958881362796387
15,7.645204699439771
16,3.945991178163581
17,0.9581134194044125
18,2.8467746588695954
2,1, 1, 1, 0,15,30.00,45.00,Tuesday
7,-1.1
8,563.2430159033937
9,1.0
10,140.8967369711617
11,1.0
12,140.8967369711617
13,563.2430159033937
14,2.902193550748938
15,6.437519524034291
16,3.5013460205595949
17,0.6479599434391616
18,2.835899284886199
2,1, 1, 1, 0,15,45.00,60.00,Tuesday
7,-1.1
8,462.57460658230596
9,1.0
10,116.57355796743004
11,1.0
12,116.57355796743004
13,462.57460658230596
14,2.808569993811721
15,5.225714472928131
16,3.0455300299043985
17,0.32804087794988848
18,2.811073803811742
2,1, 1, 1, 0,16, 0.00,15.00,Tuesday
7,-1.1
8,366.4201537001238
9,1.0
10,93.14939272689483
11,1.0
12,93.14939272689483
13,366.4201537001238
14,2.70818640585706
15,4.1613732165498649
16,2.6158100235662689
17,0.07200217019340016
18,2.772699234495328
2,1, 1, 1, 0,16,15.00,30.00,Tuesday
7,-1.1
8,226.98826256185778
9,1.0
10,57.94047897402063
11,1.0
12,57.94047897402063
13,226.98826256185778
14,2.545576959697975
15,2.0365661642943699
16,1.9548591670662177
17,-0.39165987179478636
18,2.715853268436766
2,1, 1, 1, 0,16,30.00,45.00,Tuesday
7,-1.1
8,175.67242770507284
9,1.0
10,45.38251793443488
11,1.0
12,45.38251793443488
13,175.67242770507284
14,2.4883026455023469
15,1.4190822362170504
16,1.7140700507396787
17,-0.5230945006795196
18,2.6479338487946726
2,1, 1, 1, 0,16,45.00,60.00,Tuesday
7,-1.1
8,122.45283212623183
9,1.0
10,32.02625108222755
11,1.0
12,32.02625108222755
13,122.45283212623183
14,2.396289672013594
15,0.5464136590822435
16,1.4663674331538915
17,-0.6732897733376149
18,2.575853956155555
2,1, 1, 1, 0,17, 0.00,15.00,Tuesday
7,-1.1
8,67.11026965188977
9,1.0
10,17.762198626050539
11,1.0
12,17.762198626050539
13,67.11026965188977
14,2.2746713871921337
15,-0.7175196530700808
16,1.1413219635508086
17,-0.943400558341466
18,2.4971632354715664
2,1, 1, 1, 0,17,15.00,30.00,Tuesday
7,-1.1
8,0.0
9,0.0
10,0.0
11,0.0
12,0.0
13,0.0
14,2.1036248762645046
15,-2.560308297342993
16,0.7247363919459531
17,-1.3226999166203087
18,2.4021741864291634
2,1, 1, 1, 0,17,30.00,45.00,Tuesday
7,-1.1
8,0.0
9,0.0
10,0.0
11,0.0
12,0.0
13,0.0
14,2.057336867598793
15,-2.7013801320265826
16,0.6462088357405946
17,-1.3733140088319829
18,2.307274280875974
2,1, 1, 1, 0,17,45.00,60.00,Tuesday
7,-1.1
8,0.0
9,0.0
10,0.0
11,0.0
12,0.0
13,0.0
14,1.995903484793167
15,-2.9024352197756437
16,0.5957974741855878
17,-1.4135286700395114
18,2.2270573119139378
2,1, 1, 1, 0,18, 0.00,15.00,Tuesday
7,-1.25
8,0.0
9,0.0
10,0.0
11,0.0
12,0.0
13,0.0
14,1.9458778413333516
15,-3.0489924415397104
16,0.5030590347671478
17,-1.5425840657329673
18,2.163847246058506
2,1, 1, 1, 0,18,15.00,30.00,Tuesday
7,-1.4
8,0.0
9,0.0
10,0.0
11,0.0
12,0.0
13,0.0
14,1.9008111602862062
15,-3.201380673952919
16,0.4255272819005427
17,-1.660119555847018
18,2.1135202081415724
2,1, 1, 1, 0,18,30.00,45.00,Tuesday
7,-1.5499999999999999
8,0.0
9,0.0
10,0.0
11,0.0
12,0.0
13,0.0
14,1.8601223734963759
15,-3.353128379655094
16,0.3516875873980325
17,-1.7764501430243627
18,2.0710457744528094
2,1, 1, 1, 0,18,45.00,60.00,Tuesday
7,-1.7
8,0.0
9,0.0
10,0.0
11,0.0
12,0.0
13,0.0
14,1.82177797971851
15,-3.5050511676278766
16,0.28078591134010369
17,-1.8913051164370814
18,2.0328666626352387
2,1, 1, 1, 0,19, 0.00,15.00,Tuesday
7,-1.825
8,0.0
9,0.0
10,0.0
11,0.0
12,0.0
13,0.0
14,1.8123381582748118
15,-3.3424003729084439
16,0.23355390787116904
17,-1.956505085252786
18,2.000776428366816
2,1, 1, 1, 0,19,15.00,30.00,Tuesday
7,-1.9500000000000002
8,0.0
9,0.0
10,0.0
11,0.0
12,0.0
13,0.0
14,1.8013942326912005
15,-3.2629787006621484
16,0.18575811239043106
17,-2.0361771603800209
18,1.9762454392690514
2,1, 1, 1, 0,19,30.00,45.00,Tuesday
7,-2.075
8,0.0
9,0.0
10,0.0
11,0.0
12,0.0
13,0.0
14,1.785252649861835
15,-3.3333434081911399
16,0.13786606339760966
17,-2.124647804361018
18,1.9575660664171382
2,1, 1, 1, 0,19,45.00,60.00,Tuesday
7,-2.2
8,0.0
9,0.0
10,0.0
11,0.0
12,0.0
13,0.0
14,1.7723118216991166
15,-3.2998667714330867
16,0.09039793425540666
17,-2.2137764311007688
18,1.9416823637277916
2,1, 1, 1, 0,20, 0.00,15.00,Tuesday
7,-1.9250000000000003
8,0.0
9,0.0
10,0.0
11,0.0
12,0.0
13,0.0
14,1.776035889855408
15,-2.9958687316329306
16,0.18235993981062394
17,-2.029900080229936
18,1.9291756933284779
2,1, 1, 1, 0,20,15.00,30.00,Tuesday
7,-1.6500000000000002
8,0.0
9,0.0
10,0.0
11,0.0
12,0.0
13,0.0
14,1.7807041338010077
15,-2.6951253115040476
16,0.2639759910290991
17,-1.8160199132078674
18,1.9204403815846492
2,1, 1, 1, 0,20,30.00,45.00,Tuesday
7,-1.375
8,0.0
9,0.0
10,0.0
11,0.0
12,0.0
13,0.0
14,1.7871829985301469
15,-2.395809109186686
16,0.3579836106106882
17,-1.6157857098075966
18,1.9150794388356863
2,1, 1, 1, 0,20,45.00,60.00,Tuesday
7,-1.1
8,0.0
9,0.0
10,0.0
11,0.0
12,0.0
13,0.0
14,1.795640541862973
15,-2.0978584415257899
16,0.44374677742644055
17,-1.3941095031451596
18,1.912236667409301
2,1, 1, 1, 0,21, 0.00,15.00,Tuesday
7,-1.25
8,0.0
9,0.0
10,0.0
11,0.0
12,0.0
13,0.0
14,1.7570437726772009
15,-2.390745557456447
16,0.3783460111772001
17,-1.5076049502050637
18,1.9049654834174444
2,1, 1, 1, 0,21,15.00,30.00,Tuesday
7,-1.4
8,0.0
9,0.0
10,0.0
11,0.0
12,0.0
13,0.0
14,1.7193544747389476
15,-2.613399833821657
16,0.31455495123088897
17,-1.621556008551238
18,1.8882225377422007
2,1, 1, 1, 0,21,30.00,45.00,Tuesday
7,-1.5499999999999999
8,0.0
9,0.0
10,0.0
11,0.0
12,0.0
13,0.0
14,1.6674701474933525
15,-2.972999752120812
16,0.2444705353673271
17,-1.7449597681138585
18,1.8605972167362273
2,1, 1, 1, 0,21,45.00,60.00,Tuesday
7,-1.7
8,0.0
9,0.0
10,0.0
11,0.0
12,0.0
13,0.0
14,1.6103505311192293
15,-3.4422491573048075
16,0.1631992664590598
17,-1.8843213515488629
18,1.8239123478831237
2,1, 1, 1, 0,22, 0.00,15.00,Tuesday
7,-1.5499999999999999
8,0.0
9,0.0
10,0.0
11,0.0
12,0.0
13,0.0
14,1.6279750918552208
15,-2.9341060658383588
16,0.19990603783935513
17,-1.7716026766576647
18,1.7921577125764206
2,1, 1, 1, 0,22,15.00,30.00,Tuesday
7,-1.4
8,0.0
9,0.0
10,0.0
11,0.0
12,0.0
13,0.0
14,1.6376361843362378
15,-2.589990459011433
16,0.2511059579111361
17,-1.6499165407234955
18,1.7733328170977672
2,1, 1, 1, 0,22,30.00,45.00,Tuesday
7,-1.25
8,0.0
9,0.0
10,0.0
11,0.0
12,0.0
13,0.0
14,1.6447072356411823
15,-2.363665954849259
16,0.29981734405009777
17,-1.5352703054582549
18,1.7657528738074862
2,1, 1, 1, 0,22,45.00,60.00,Tuesday
7,-1.1
8,0.0
9,0.0
10,0.0
11,0.0
12,0.0
13,0.0
14,1.655587851737395
15,-2.0698598387298898
16,0.3583931874375139
17,-1.4055229455282188
18,1.7645075291772694
2,1, 1, 1, 0,23, 0.00,15.00,Tuesday
7,-1.25
8,0.0
9,0.0
10,0.0
11,0.0
12,0.0
13,0.0
14,1.6170497771698163
15,-2.373717680260403
16,0.23323355857246498
17,-1.6511671548288405
18,1.7590097961036174
2,1, 1, 1, 0,23,15.00,30.00,Tuesday
7,-1.4
8,0.0
9,0.0
10,0.0
11,0.0
12,0.0
13,0.0
14,1.5801798289805114
15,-2.6782779809408439
16,0.1023241817977123
17,-1.9164469187362557
18,1.7433197996499755
2,1, 1, 1, 0,23,30.00,45.00,Tuesday
7,-1.5499999999999999
8,0.0
9,0.0
10,0.0
11,0.0
12,0.0
13,0.0
14,1.5394628180614512
15,-2.9834288099127788
16,-0.029329942633580687
17,-2.1824534056864879
18,1.7178136000977629
2,1, 1, 1, 0,23,45.00,60.00,Tuesday
7,-1.7
8,0.0
9,0.0
10,0.0
11,0.0
12,0.0
13,0.0
14,1.4948979847628184
15,-3.2889397729923477
16,-0.16387322238227854
17,-2.449443471763857
18,1.6852020394725536
2,1, 1, 1, 0,24, 0.00,15.00,Tuesday
7,-1.7
8,0.0
9,0.0
10,0.0
11,0.0
12,0.0
13,0.0
14,1.4689593321606758
15,-3.3426378397071847
16,-0.20625857115106784
17,-2.5086260332813596
18,1.6514562516210903
2,1, 1, 1, 0,24,15.00,30.00,Tuesday
7,-1.7
8,0.0
9,0.0
10,0.0
11,0.0
12,0.0
13,0.0
14,1.4398673727398135
15,-3.3971621412098047
16,-0.24633467628552808
17,-2.564944325800468
18,1.619950128121327
2,1, 1, 1, 0,24,30.00,45.00,Tuesday
7,-1.7
8,0.0
9,0.0
10,0.0
11,0.0
12,0.0
13,0.0
14,1.411575843359284
15,-3.45153750813667
16,-0.286963061548704
17,-2.6213043468599155
18,1.5909312504641489
2,1, 1, 1, 0,24,45.00,60.00,Tuesday
7,-1.7
8,0.0
9,0.0
10,0.0
11,0.0
12,0.0
13,0.0
14,1.383981666535225
15,-3.5059113592086468
16,-0.32692772582129239
17,-2.677311012846758
18,1.5634964615575724
End of Data
 Number of Records Written=        1152
