Program Version,EnergyPlus, Version 9.5.0-de239b2e5f, YMD=2023.02.13 19:58
1,5,Environment Title[],Latitude[deg],Longitude[deg],Time Zone[],Elevation[m]
2,8,Day of Simulation[],Month[],Day of Month[],DST Indicator[1=yes 0=no],Hour[],StartMinute[],EndMinute[],DayType
3,5,Cumulative Day of Simulation[],Month[],Day of Month[],DST Indicator[1=yes 0=no],DayType  ! When Daily Report Variables Requested
4,2,Cumulative Days of Simulation[],Month[]  ! When Monthly Report Variables Requested
5,1,Cumulative Days of Simulation[] ! When Run Period Report Variables Requested
6,1,Calendar Year of Simulation[] ! When Annual Report Variables Requested
7,1,Environment,Site Outdoor Air Drybulb Temperature [C] !TimeStep
8,1,ZONE ONE,Zone Windows Total Transmitted Solar Radiation Rate [W] !TimeStep
9,1,ZN001:WALL001,Surface Outside Face Sunlit Fraction [] !TimeStep
10,1,ZN001:WALL001,Surface Outside Face Incident Solar Radiation Rate per Area [W/m2] !TimeStep
11,1,ZN001:WALL001:WIN001,Surface Outside Face Sunlit Fraction [] !TimeStep
12,1,ZN001:WALL001:WIN001,Surface Outside Face Incident Solar Radiation Rate per Area [W/m2] !TimeStep
13,1,ZN001:WALL001:WIN001,Surface Window Transmitted Solar Radiation Rate [W] !TimeStep
14,1,ZN001:WALL001,Surface Inside Face Temperature [C] !TimeStep
15,1,ZN001:WALL001,Surface Outside Face Temperature [C] !TimeStep
16,1,ZN001:WALL001:WIN001,Surface Inside Face Temperature [C] !TimeStep
17,1,ZN001:WALL001:WIN001,Surface Outside Face Temperature [C] !TimeStep
18,1,ZONE ONE,Zone Mean Air Temperature [C] !TimeStep
End of Data Dictionary
1,RUN PERIOD 1,  41.98, -87.92,  -6.00, 201.00
2,1, 1, 1, 0, 1, 0.00,15.00,Tuesday
7,-4.324999999999999
8,0.0
9,0.0
10,0.0
11,0.0
12,0.0
13,0.0
14,8.648273760840372
15,-5.84653507676854
16,5.421428173573872
17,-3.579629929302314
18,9.168248643654865
2,1, 1, 1, 0, 1,15.00,30.00,Tuesday
7,-6.949999999999999
8,0.0
9,0.0
10,0.0
11,0.0
12,0.0
13,0.0
14,8.458861863941742
15,-8.313508195437459
16,4.755565245618072
17,-5.61536798855434
18,9.057853075713375
2,1, 1, 1, 0, 1,30.00,45.00,Tuesday
7,-9.575
8,0.0
9,0.0
10,0.0
11,0.0
12,0.0
13,0.0
14,8.248473115937724
15,-10.788435715007467
16,4.082233260908083
17,-7.657017917220514
18,8.915368985661349
2,1, 1, 1, 0, 1,45.00,60.00,Tuesday
7,-12.2
8,0.0
9,0.0
10,0.0
11,0.0
12,0.0
13,0.0
14,8.021772863010348
15,-13.27001290709535
16,3.3934998951750119
17,-9.706243315988332
18,8.751128733009848
2,1, 1, 1, 0, 2, 0.00,15.00,Tuesday
7,-12.075
8,0.0
9,0.0
10,0.0
11,0.0
12,0.0
13,0.0
14,7.941735950776408
15,-13.070669659137172
16,3.328104774947633
17,-9.549012670528157
18,8.603608479315597
2,1, 1, 1, 0, 2,15.00,30.00,Tuesday
7,-11.95
8,0.0
9,0.0
10,0.0
11,0.0
12,0.0
13,0.0
14,7.849009139831268
15,-12.893820986809942
16,3.2904999131947649
17,-9.413924478604827
18,8.489479875269112
2,1, 1, 1, 0, 2,30.00,45.00,Tuesday
7,-11.825
8,0.0
9,0.0
10,0.0
11,0.0
12,0.0
13,0.0
14,7.774146045845796
15,-12.715811944403772
16,3.2594775752053239
17,-9.278095092814795
18,8.402307820599513
2,1, 1, 1, 0, 2,45.00,60.00,Tuesday
7,-11.7
8,0.0
9,0.0
10,0.0
11,0.0
12,0.0
13,0.0
14,7.710698806785033
15,-12.537896651914082
16,3.2452789562859154
17,-9.149316923875518
18,8.330448569831117
2,1, 1, 1, 0, 3, 0.00,15.00,Tuesday
7,-11.549999999999999
8,0.0
9,0.0
10,0.0
11,0.0
12,0.0
13,0.0
14,7.648989163973575
15,-12.410419728994079
16,3.2345669945569854
17,-8.986835912917684
18,8.26475550682366
2,1, 1, 1, 0, 3,15.00,30.00,Tuesday
7,-11.399999999999999
8,0.0
9,0.0
10,0.0
11,0.0
12,0.0
13,0.0
14,7.590371193544795
15,-12.284254426301164
16,3.228921547065397
17,-8.833935007888272
18,8.200993587266856
2,1, 1, 1, 0, 3,30.00,45.00,Tuesday
7,-11.25
8,0.0
9,0.0
10,0.0
11,0.0
12,0.0
13,0.0
14,7.532544269348681
15,-12.159538090484766
16,3.225199994572449
17,-8.680839642983415
18,8.138096851196228
2,1, 1, 1, 0, 3,45.00,60.00,Tuesday
7,-11.1
8,0.0
9,0.0
10,0.0
11,0.0
12,0.0
13,0.0
14,7.475236898717405
15,-12.036323641839364
16,3.2221067126369578
17,-8.527737465691644
18,8.076026598383866
2,1, 1, 1, 0, 4, 0.00,15.00,Tuesday
7,-11.1
8,0.0
9,0.0
10,0.0
11,0.0
12,0.0
13,0.0
14,7.4139825853466478
15,-12.010006479931488
16,3.156183801782902
17,-8.58091708729512
18,8.013697146127003
2,1, 1, 1, 0, 4,15.00,30.00,Tuesday
7,-11.1
8,0.0
9,0.0
10,0.0
11,0.0
12,0.0
13,0.0
14,7.35311531209045
15,-11.98470155191215
16,3.0945093265876837
17,-8.632575951513332
18,7.950695606924924
2,1, 1, 1, 0, 4,30.00,45.00,Tuesday
7,-11.1
8,0.0
9,0.0
10,0.0
11,0.0
12,0.0
13,0.0
14,7.291978846416529
15,-11.960832353763627
16,3.0332829465820625
17,-8.683121417993789
18,7.887217331844192
2,1, 1, 1, 0, 4,45.00,60.00,Tuesday
7,-11.1
8,0.0
9,0.0
10,0.0
11,0.0
12,0.0
13,0.0
14,7.230724721775539
15,-11.93826927124645
16,2.972299631935357
17,-8.732416093318534
18,7.823578283360949
2,1, 1, 1, 0, 5, 0.00,15.00,Tuesday
7,-10.975
8,0.0
9,0.0
10,0.0
11,0.0
12,0.0
13,0.0
14,7.175152924050382
15,-11.816553468635833
16,2.956234257761537
17,-8.652389191844179
18,7.761200306116607
2,1, 1, 1, 0, 5,15.00,30.00,Tuesday
7,-10.85
8,0.0
9,0.0
10,0.0
11,0.0
12,0.0
13,0.0
14,7.119858860590993
15,-11.694889505223819
16,2.937198029345268
17,-8.564138086290825
18,7.700612447303787
2,1, 1, 1, 0, 5,30.00,45.00,Tuesday
7,-10.725
8,0.0
9,0.0
10,0.0
11,0.0
12,0.0
13,0.0
14,7.065708228621073
15,-11.57320007542806
16,2.9184079767785535
17,-8.474914850544906
18,7.641528557698716
2,1, 1, 1, 0, 5,45.00,60.00,Tuesday
7,-10.6
8,0.0
9,0.0
10,0.0
11,0.0
12,0.0
13,0.0
14,7.01249476868848
15,-11.45151948182911
16,2.9004742848843536
17,-8.385393641064411
18,7.583512615329462
2,1, 1, 1, 0, 6, 0.00,15.00,Tuesday
7,-10.6
8,0.0
9,0.0
10,0.0
11,0.0
12,0.0
13,0.0
14,6.952494465534172
15,-11.452669902443653
16,2.8503954789537149
17,-8.39005357977453
18,7.524865071523661
2,1, 1, 1, 0, 6,15.00,30.00,Tuesday
7,-10.6
8,0.0
9,0.0
10,0.0
11,0.0
12,0.0
13,0.0
14,6.893147747357828
15,-11.453783820361493
16,2.8018292132009607
17,-8.400922853819509
18,7.464876047994589
2,1, 1, 1, 0, 6,30.00,45.00,Tuesday
7,-10.6
8,0.0
9,0.0
10,0.0
11,0.0
12,0.0
13,0.0
14,6.833266967901201
15,-11.454939750662135
16,2.7535026977471945
17,-8.412381497842035
18,7.403872053791436
2,1, 1, 1, 0, 6,45.00,60.00,Tuesday
7,-10.6
8,0.0
9,0.0
10,0.0
11,0.0
12,0.0
13,0.0
14,6.77310417415573
15,-11.456092321580496
16,2.7048451361530398
17,-8.424001523050379
18,7.342401207558574
2,1, 1, 1, 0, 7, 0.00,15.00,Tuesday
7,-10.6
8,0.0
9,0.0
10,0.0
11,0.0
12,0.0
13,0.0
14,6.714774605271516
15,-11.434285140600594
16,2.6451205153620096
17,-8.466802244232554
18,7.281062836391175
2,1, 1, 1, 0, 7,15.00,30.00,Tuesday
7,-10.6
8,0.0
9,0.0
10,0.0
11,0.0
12,0.0
13,0.0
14,6.6563609656348359
15,-11.413610771404699
16,2.587805231379491
17,-8.510089532118628
18,7.220176976000279
2,1, 1, 1, 0, 7,30.00,45.00,Tuesday
7,-10.6
8,0.0
9,0.0
10,0.0
11,0.0
12,0.0
13,0.0
14,6.598243647472211
15,-11.393992024047506
16,2.531109924471707
17,-8.552389179458942
18,7.159741196586555
2,1, 1, 1, 0, 7,45.00,60.00,Tuesday
7,-10.6
8,0.0
9,0.0
10,0.0
11,0.0
12,0.0
13,0.0
14,6.540433161197665
15,-11.375365634877007
16,2.47502515652684
17,-8.59348925642746
18,7.099665681111742
2,1, 1, 1, 0, 8, 0.00,15.00,Tuesday
7,-10.45
8,0.0
9,0.0
10,0.0
11,0.0
12,0.0
13,0.0
14,6.48235831579024
15,-11.325254163961109
16,2.45393882539679
17,-8.535598692754548
18,7.039815684080224
2,1, 1, 1, 0, 8,15.00,30.00,Tuesday
7,-10.3
8,215.5879980222353
9,1.0
10,22.819555959623899
11,1.0
12,22.819555959623899
13,215.5879980222353
14,6.555563760156623
15,-9.65110432934371
16,2.716866924380099
17,-8.22149647718959
18,7.000973903183046
2,1, 1, 1, 0, 8,30.00,45.00,Tuesday
7,-10.15
8,1058.5392312119832
9,1.0
10,109.75755355442667
11,1.0
12,109.75755355442667
13,1058.5392312119832
14,6.988376754146929
15,-3.2737932403194978
16,3.846566319329554
17,-7.205406363332031
18,7.041397288750125
2,1, 1, 1, 0, 8,45.00,60.00,Tuesday
7,-10.0
8,1924.8399544048012
9,1.0
10,195.8764694434918
11,1.0
12,195.8764694434918
13,1924.8399544048012
14,7.54117465382692
15,3.2015598055719258
16,5.079728110782867
17,-6.177306713809003
18,7.168722477985012
2,1, 1, 1, 0, 9, 0.00,15.00,Tuesday
7,-9.725
8,2788.1568045040946
9,1.0
10,278.97248314719988
11,1.0
12,278.97248314719988
13,2788.1568045040946
14,8.01683927486447
15,8.37796589305707
16,6.313878695555104
17,-5.278783953595678
18,7.357318288024007
2,1, 1, 1, 0, 9,15.00,30.00,Tuesday
7,-9.45
8,3698.191694964431
9,1.0
10,364.91995730569456
11,1.0
12,364.91995730569456
13,3698.191694964431
14,8.504325055974939
15,13.453298553365859
16,7.682958033788395
17,-4.35359022669445
18,7.596772009821885
2,1, 1, 1, 0, 9,30.00,45.00,Tuesday
7,-9.175
8,4300.2673206835229
9,1.0
10,420.35879993239237
11,1.0
12,420.35879993239237
13,4300.2673206835229
14,8.862085706400535
15,16.20967313437588
16,8.600950716659327
17,-3.7759780170132446
18,7.862990175758418
2,1, 1, 1, 0, 9,45.00,60.00,Tuesday
7,-8.9
8,4925.271017558337
9,1.0
10,478.00138373643099
11,1.0
12,478.00138373643099
13,4925.271017558337
14,9.277569239750813
15,19.203784083513573
16,9.50126015752926
17,-3.18493334639129
18,8.14439846405091
2,1, 1, 1, 0,10, 0.00,15.00,Tuesday
7,-8.350000000000002
8,5563.47927965646
9,1.0
10,536.9185644770597
11,1.0
12,536.9185644770597
13,5563.47927965646
14,9.644029507940314
15,20.317470314753856
16,10.429116352896586
17,-2.5624621622024508
18,8.441648374928207
2,1, 1, 1, 0,10,15.00,30.00,Tuesday
7,-7.800000000000001
8,6223.735720388039
9,1.0
10,598.0969199229219
11,1.0
12,598.0969199229219
13,6223.735720388039
14,10.04306797804313
15,21.567568958343125
16,11.37256461297568
17,-1.9353243410606638
18,8.582692719604698
2,1, 1, 1, 0,10,30.00,45.00,Tuesday
7,-7.25
8,6656.871608685562
9,1.0
10,637.6133352894237
11,1.0
12,637.6133352894237
13,6656.871608685562
14,10.317371792357204
15,21.62332261091117
16,12.05144868318905
17,-1.4898626542612306
18,8.85514218318687
2,1, 1, 1, 0,10,45.00,60.00,Tuesday
7,-6.7
8,7083.627635407371
9,1.0
10,676.6412284283772
11,1.0
12,676.6412284283772
13,7083.627635407371
14,10.583753808956639
15,21.780147005224945
16,12.672941989685569
17,-1.0491844826664192
18,9.057353464517928
2,1, 1, 1, 0,11, 0.00,15.00,Tuesday
7,-6.275
8,7502.619881932496
9,1.0
10,715.0112779846514
11,1.0
12,715.0112779846514
13,7502.619881932496
14,11.004034070419824
15,23.8798809113941
16,13.372987594877202
17,-0.38149807296531437
18,9.523217010774563
2,1, 1, 1, 0,11,15.00,30.00,Tuesday
7,-5.85
8,7911.749570952164
9,1.0
10,752.5077794605232
11,1.0
12,752.5077794605232
13,7911.749570952164
14,11.477465845303211
15,25.817180608993636
16,14.122438975625414
17,0.2785948543998984
18,9.958361158494846
2,1, 1, 1, 0,11,30.00,45.00,Tuesday
7,-5.425
8,7790.156876744835
9,1.0
10,742.5988714321785
11,1.0
12,742.5988714321785
13,7790.156876744835
14,11.768932865138659
15,25.669195064124616
16,14.387752286726652
17,0.5949394071697611
18,10.364304146532478
2,1, 1, 1, 0,11,45.00,60.00,Tuesday
7,-5.0
8,7616.415097398768
9,1.0
10,727.8169025450712
11,1.0
12,727.8169025450712
13,7616.415097398768
14,12.047200523585428
15,25.441138326374369
16,14.557463045568682
17,0.8805733286012583
18,10.724337443502659
2,1, 1, 1, 0,12, 0.00,15.00,Tuesday
7,-4.575
8,7317.63187899619
9,1.0
10,700.3759009170325
11,1.0
12,700.3759009170325
13,7317.63187899619
14,12.2477612456584
15,24.69932150906669
16,14.587224739299018
17,1.1165130360489002
18,11.034335510345205
2,1, 1, 1, 0,12,15.00,30.00,Tuesday
7,-4.15
8,7096.045470548525
9,1.0
10,681.6705029034473
11,1.0
12,681.6705029034473
13,7096.045470548525
14,12.468412681791883
15,24.369719347151518
16,14.681203803619497
17,1.4139061285614503
18,11.306945650427771
2,1, 1, 1, 0,12,30.00,45.00,Tuesday
7,-3.7249999999999998
8,6229.736928425406
9,1.0
10,602.01865277251
11,1.0
12,602.01865277251
13,6229.736928425406
14,12.382327549768379
15,21.341031078317767
16,14.111816436737172
17,1.2864534146842744
18,11.517333668903913
2,1, 1, 1, 0,12,45.00,60.00,Tuesday
7,-3.3
8,5087.904404183855
9,1.0
10,493.55004396206007
11,1.0
12,493.55004396206007
13,5087.904404183855
14,12.188113384969477
15,17.164048632547958
16,13.108018048714542
17,0.925119110799983
18,11.632957582924064
2,1, 1, 1, 0,13, 0.00,15.00,Tuesday
7,-3.0249999999999996
8,4201.063393949559
9,1.0
10,412.335026418112
11,1.0
12,412.335026418112
13,4201.063393949559
14,12.054689831245005
15,14.320993563766704
16,12.298217804963713
17,0.6949582608378364
18,11.67251453834155
2,1, 1, 1, 0,13,15.00,30.00,Tuesday
7,-2.75
8,3076.892122430221
9,1.0
10,305.94037763660148
11,1.0
12,305.94037763660148
13,3076.892122430221
14,11.7197303302065
15,10.14874839574864
16,11.112153135470863
17,0.24989884448052636
18,11.64781604223135
2,1, 1, 1, 0,13,30.00,45.00,Tuesday
7,-2.475
8,2809.0935899127655
9,1.0
10,281.0763483922329
11,1.0
12,281.0763483922329
13,2809.0935899127655
14,11.695288944714564
15,9.63785197491103
16,10.850236585903702
17,0.3924426426459604
18,11.601527948662833
2,1, 1, 1, 0,13,45.00,60.00,Tuesday
7,-2.2
8,2546.8736709552365
9,1.0
10,256.7721209415886
11,1.0
12,256.7721209415886
13,2546.8736709552365
14,11.65545924360785
15,9.031518630418477
16,10.678856906908095
17,0.5616333731095438
18,11.56178450615653
2,1, 1, 1, 0,14, 0.00,15.00,Tuesday
7,-1.9250000000000003
8,2080.536760270814
9,1.0
10,210.73276284570657
11,1.0
12,210.73276284570657
13,2080.536760270814
14,11.493472622278466
15,7.485468011238174
16,10.23333818863648
17,0.5374927470307966
18,11.52312102219148
2,1, 1, 1, 0,14,15.00,30.00,Tuesday
7,-1.6500000000000002
8,1848.1882299855229
9,1.0
10,189.38488290342594
11,1.0
12,189.38488290342594
13,1848.1882299855229
14,11.450105272396783
15,7.082075113577131
16,10.038057675149105
17,0.6892531374879809
18,11.486549291531754
2,1, 1, 1, 0,14,30.00,45.00,Tuesday
7,-1.375
8,1762.648528253172
9,1.0
10,179.3940297802914
11,1.0
12,179.3940297802914
13,1762.648528253172
14,11.434288679349807
15,7.2075437935505379
16,10.009452490494596
17,0.9357572694743794
18,11.454424254877491
2,1, 1, 1, 0,14,45.00,60.00,Tuesday
7,-1.1
8,1676.1315823352277
9,1.0
10,169.43349014176136
11,1.0
12,169.43349014176136
13,1676.1315823352277
14,11.4143821840368
15,7.308310668365518
16,9.973726719058334
17,1.1805668504795222
18,11.426297678947634
2,1, 1, 1, 0,15, 0.00,15.00,Tuesday
7,-1.1
8,1764.2336451764168
9,1.0
10,178.15692317953907
11,1.0
12,178.15692317953907
13,1764.2336451764168
14,11.482832595477135
15,8.129270870465933
16,10.084383020134965
17,1.3154640111193885
18,11.406848272673038
2,1, 1, 1, 0,15,15.00,30.00,Tuesday
7,-1.1
8,1657.44905719483
9,1.0
10,166.40516310952945
11,1.0
12,166.40516310952945
13,1657.44905719483
14,11.422539343384232
15,7.7666039852598429
16,9.972668358712327
17,1.2828219142180615
18,11.389985811925245
2,1, 1, 1, 0,15,30.00,45.00,Tuesday
7,-1.1
8,1397.5312645024297
9,1.0
10,140.8967369711617
11,1.0
12,140.8967369711617
13,1397.5312645024297
14,11.287755722555339
15,6.560348134117287
16,9.651307935455066
17,1.1064893103299483
18,11.362606198461247
2,1, 1, 1, 0,15,45.00,60.00,Tuesday
7,-1.1
8,1150.0543343484979
9,1.0
10,116.57355796743004
11,1.0
12,116.57355796743004
13,1150.0543343484979
14,11.158012378177136
15,5.356933306681843
16,9.325809373102743
17,0.9230300625982295
18,11.317062363731005
2,1, 1, 1, 0,16, 0.00,15.00,Tuesday
7,-1.1
8,912.7487358563033
9,1.0
10,93.14939272689483
11,1.0
12,93.14939272689483
13,912.7487358563033
14,11.038918736664865
15,4.310229045338535
16,9.038028979333604
17,0.8284241443436713
18,11.252671668334444
2,1, 1, 1, 0,16,15.00,30.00,Tuesday
7,-1.1
8,566.636069103818
9,1.0
10,57.94047897402063
11,1.0
12,57.94047897402063
13,566.636069103818
14,10.822340468582916
15,2.191303775637304
16,8.591275983850779
17,0.6044802588808693
18,11.162378146728964
2,1, 1, 1, 0,16,30.00,45.00,Tuesday
7,-1.1
8,439.3280485110057
9,1.0
10,45.38251793443488
11,1.0
12,45.38251793443488
13,439.3280485110057
14,10.735332961713898
15,1.5872418192267888
16,8.39279965154526
17,0.6004884953093779
18,11.06058343115485
2,1, 1, 1, 0,16,45.00,60.00,Tuesday
7,-1.1
8,306.6800834820858
9,1.0
10,32.02625108222755
11,1.0
12,32.02625108222755
13,306.6800834820858
14,10.606998345935315
15,0.731247972667805
16,8.212866239274434
17,0.5974146678781835
18,10.96026187108693
2,1, 1, 1, 0,17, 0.00,15.00,Tuesday
7,-1.1
8,168.21359625367695
9,1.0
10,17.762198626050539
11,1.0
12,17.762198626050539
13,168.21359625367695
14,10.454411032033914
15,-0.5100692977132529
16,7.977884460942391
17,0.4883276460641355
18,10.859628035141555
2,1, 1, 1, 0,17,15.00,30.00,Tuesday
7,-1.1
8,0.0
9,0.0
10,0.0
11,0.0
12,0.0
13,0.0
14,10.250386766315927
15,-2.3426545687763884
16,7.658454167247328
17,0.23949692947178392
18,10.745017383419432
2,1, 1, 1, 0,17,30.00,45.00,Tuesday
7,-1.1
8,0.0
9,0.0
10,0.0
11,0.0
12,0.0
13,0.0
14,10.185162097229487
15,-2.4737165559705129
16,7.580758694947917
17,0.29143688865769948
18,10.632933830552318
2,1, 1, 1, 0,17,45.00,60.00,Tuesday
7,-1.1
8,0.0
9,0.0
10,0.0
11,0.0
12,0.0
13,0.0
14,10.103050958583202
15,-2.656488116087497
16,7.542308776727452
17,0.3569638285233623
18,10.538308883386998
2,1, 1, 1, 0,18, 0.00,15.00,Tuesday
7,-1.25
8,0.0
9,0.0
10,0.0
11,0.0
12,0.0
13,0.0
14,10.032437705917939
15,-2.8054200353157365
16,7.44067598555398
17,0.2186680240183705
18,10.461165025399222
2,1, 1, 1, 0,18,15.00,30.00,Tuesday
7,-1.4
8,0.0
9,0.0
10,0.0
11,0.0
12,0.0
13,0.0
14,9.967544406710115
15,-2.9579431757464156
16,7.354183548737069
17,0.08714059270528196
18,10.395495871752904
2,1, 1, 1, 0,18,30.00,45.00,Tuesday
7,-1.5499999999999999
8,0.0
9,0.0
10,0.0
11,0.0
12,0.0
13,0.0
14,9.906813771251138
15,-3.110135468271478
16,7.272398293241963
17,-0.04348664113581435
18,10.335643356723681
2,1, 1, 1, 0,18,45.00,60.00,Tuesday
7,-1.7
8,0.0
9,0.0
10,0.0
11,0.0
12,0.0
13,0.0
14,9.84791079139831
15,-3.2624965332931858
16,7.193377456828387
17,-0.1734185674301898
18,10.278303101430068
2,1, 1, 1, 0,19, 0.00,15.00,Tuesday
7,-1.825
8,0.0
9,0.0
10,0.0
11,0.0
12,0.0
13,0.0
14,9.811089428670572
15,-3.127978739816994
16,7.084265483716706
17,-0.39287733752018996
18,10.225083958420397
2,1, 1, 1, 0,19,15.00,30.00,Tuesday
7,-1.9500000000000002
8,0.0
9,0.0
10,0.0
11,0.0
12,0.0
13,0.0
14,9.774730899757568
15,-3.073181516756602
16,6.991897260576366
17,-0.5977923011182611
18,10.177937604977784
2,1, 1, 1, 0,19,30.00,45.00,Tuesday
7,-2.075
8,0.0
9,0.0
10,0.0
11,0.0
12,0.0
13,0.0
14,9.732433973939706
15,-3.1503514779239287
16,6.928324638899994
17,-0.7302167442695691
18,10.135652802183757
2,1, 1, 1, 0,19,45.00,60.00,Tuesday
7,-2.2
8,0.0
9,0.0
10,0.0
11,0.0
12,0.0
13,0.0
14,9.693577326805773
15,-3.138573467216549
16,6.839672770008974
17,-0.9242010290719236
18,10.095129013051956
2,1, 1, 1, 0,20, 0.00,15.00,Tuesday
7,-1.9250000000000003
8,0.0
9,0.0
10,0.0
11,0.0
12,0.0
13,0.0
14,9.671631543174489
15,-2.8400219953589969
16,6.876703622627758
17,-0.7406532634511223
18,10.0575726052946
2,1, 1, 1, 0,20,15.00,30.00,Tuesday
7,-1.6500000000000002
8,0.0
9,0.0
10,0.0
11,0.0
12,0.0
13,0.0
14,9.649121070087185
15,-2.5442412959082367
16,6.909390487046153
17,-0.544451277326857
18,10.023693797591582
2,1, 1, 1, 0,20,30.00,45.00,Tuesday
7,-1.375
8,0.0
9,0.0
10,0.0
11,0.0
12,0.0
13,0.0
14,9.628712878438887
15,-2.2495759881195425
16,6.94358701348483
17,-0.3454839702205277
18,9.9929331967497
2,1, 1, 1, 0,20,45.00,60.00,Tuesday
7,-1.1
8,0.0
9,0.0
10,0.0
11,0.0
12,0.0
13,0.0
14,9.6100143418537
15,-1.9560693679254678
16,6.980138622151344
17,-0.14384108854949319
18,9.964422826814161
2,1, 1, 1, 0,21, 0.00,15.00,Tuesday
7,-1.25
8,0.0
9,0.0
10,0.0
11,0.0
12,0.0
13,0.0
14,9.55288822117739
15,-2.226581699149647
16,6.948777825014815
17,-0.16621925225865653
18,9.931401267761866
2,1, 1, 1, 0,21,15.00,30.00,Tuesday
7,-1.4
8,0.0
9,0.0
10,0.0
11,0.0
12,0.0
13,0.0
14,9.496520637016945
15,-2.4374713339124227
16,6.893106561239847
17,-0.23460906785498993
18,9.889249325954355
2,1, 1, 1, 0,21,30.00,45.00,Tuesday
7,-1.5499999999999999
8,0.0
9,0.0
10,0.0
11,0.0
12,0.0
13,0.0
14,9.427682628015399
15,-2.767603319104812
16,6.857435724085121
17,-0.23966958520827576
18,9.837531791169346
2,1, 1, 1, 0,21,45.00,60.00,Tuesday
7,-1.7
8,0.0
9,0.0
10,0.0
11,0.0
12,0.0
13,0.0
14,9.35365156395411
15,-3.2030773794362896
16,6.823113727600173
17,-0.212651112144556
18,9.778737538823105
2,1, 1, 1, 0,22, 0.00,15.00,Tuesday
7,-1.5499999999999999
8,0.0
9,0.0
10,0.0
11,0.0
12,0.0
13,0.0
14,9.34268570190764
15,-2.734842240785229
16,6.761116736661961
17,-0.2583202490059193
18,9.725568962303687
2,1, 1, 1, 0,22,15.00,30.00,Tuesday
7,-1.4
8,0.0
9,0.0
10,0.0
11,0.0
12,0.0
13,0.0
14,9.322362079502753
15,-2.417775324168301
16,6.738384841154016
17,-0.2647398926017104
18,9.68485912736217
2,1, 1, 1, 0,22,30.00,45.00,Tuesday
7,-1.25
8,0.0
9,0.0
10,0.0
11,0.0
12,0.0
13,0.0
14,9.301767192103015
15,-2.203560651616968
16,6.737189300805653
17,-0.2022519395660538
18,9.6542673769133
2,1, 1, 1, 0,22,45.00,60.00,Tuesday
7,-1.1
8,0.0
9,0.0
10,0.0
11,0.0
12,0.0
13,0.0
14,9.284892170937765
15,-1.931512255830516
16,6.726584243644652
17,-0.1831667178752241
18,9.628543431158514
2,1, 1, 1, 0,23, 0.00,15.00,Tuesday
7,-1.25
8,0.0
9,0.0
10,0.0
11,0.0
12,0.0
13,0.0
14,9.226511081494112
15,-2.234747633943286
16,6.618732392087168
17,-0.4494459126269703
18,9.597144034211246
2,1, 1, 1, 0,23,15.00,30.00,Tuesday
7,-1.4
8,0.0
9,0.0
10,0.0
11,0.0
12,0.0
13,0.0
14,9.170333493148247
15,-2.5394962081173895
16,6.502462764200118
17,-0.7326772291006591
18,9.555325371516718
2,1, 1, 1, 0,23,30.00,45.00,Tuesday
7,-1.5499999999999999
8,0.0
9,0.0
10,0.0
11,0.0
12,0.0
13,0.0
14,9.109181605037499
15,-2.844897911710654
16,6.384287806108887
17,-1.0172997652144887
18,9.504654668578646
2,1, 1, 1, 0,23,45.00,60.00,Tuesday
7,-1.7
8,0.0
9,0.0
10,0.0
11,0.0
12,0.0
13,0.0
14,9.044106034785955
15,-3.150643493663746
16,6.262027474301817
17,-1.3036580843471484
18,9.448312574551754
2,1, 1, 1, 0,24, 0.00,15.00,Tuesday
7,-1.7
8,0.0
9,0.0
10,0.0
11,0.0
12,0.0
13,0.0
14,8.994609799873834
15,-3.2049836636683586
16,6.20330474358218
17,-1.3699788532135245
18,9.392045452493214
2,1, 1, 1, 0,24,15.00,30.00,Tuesday
7,-1.7
8,0.0
9,0.0
10,0.0
11,0.0
12,0.0
13,0.0
14,8.943176062834013
15,-3.25984532742119
16,6.148160909200385
17,-1.433274332927681
18,9.33870471805564
2,1, 1, 1, 0,24,30.00,45.00,Tuesday
7,-1.7
8,0.0
9,0.0
10,0.0
11,0.0
12,0.0
13,0.0
14,8.893023959928794
15,-3.314598478761742
16,6.09292539601546
17,-1.496649229501486
18,9.288047778874656
2,1, 1, 1, 0,24,45.00,60.00,Tuesday
7,-1.7
8,0.0
9,0.0
10,0.0
11,0.0
12,0.0
13,0.0
14,8.843778483692623
15,-3.369356546689251
16,6.038625012463967
17,-1.5599201825170326
18,9.238904059900545
End of Data
 Number of Records Written=        1152
