Program Version,EnergyPlus, Version 9.5.0-de239b2e5f, YMD=2023.02.13 19:58
1,5,Environment Title[],Latitude[deg],Longitude[deg],Time Zone[],Elevation[m]
2,8,Day of Simulation[],Month[],Day of Month[],DST Indicator[1=yes 0=no],Hour[],StartMinute[],EndMinute[],DayType
3,5,Cumulative Day of Simulation[],Month[],Day of Month[],DST Indicator[1=yes 0=no],DayType  ! When Daily Report Variables Requested
4,2,Cumulative Days of Simulation[],Month[]  ! When Monthly Report Variables Requested
5,1,Cumulative Days of Simulation[] ! When Run Period Report Variables Requested
6,1,Calendar Year of Simulation[] ! When Annual Report Variables Requested
7,1,Environment,Site Outdoor Air Drybulb Temperature [C] !TimeStep
8,1,ZONE ONE,Zone Windows Total Transmitted Solar Radiation Rate [W] !TimeStep
9,1,ZN001:WALL001,Surface Outside Face Sunlit Fraction [] !TimeStep
10,1,ZN001:WALL001,Surface Outside Face Incident Solar Radiation Rate per Area [W/m2] !TimeStep
11,1,ZN001:WALL001:WIN001,Surface Outside Face Sunlit Fraction [] !TimeStep
12,1,ZN001:WALL001:WIN001,Surface Outside Face Incident Solar Radiation Rate per Area [W/m2] !TimeStep
13,1,ZN001:WALL001:WIN001,Surface Window Transmitted Solar Radiation Rate [W] !TimeStep
14,1,ZN001:WALL001,Surface Inside Face Temperature [C] !TimeStep
15,1,ZN001:WALL001,Surface Outside Face Temperature [C] !TimeStep
16,1,ZN001:WALL001:WIN001,Surface Inside Face Temperature [C] !TimeStep
17,1,ZN001:WALL001:WIN001,Surface Outside Face Temperature [C] !TimeStep
18,1,ZONE ONE,Zone Mean Air Temperature [C] !TimeStep
End of Data Dictionary
1,RUN PERIOD 1,  41.98, -87.92,  -6.00, 201.00
2,1, 1, 1, 0, 1, 0.00,15.00,Tuesday
7,-4.324999999999999
8,0.0
9,0.0
10,0.0
11,0.0
12,0.0
13,0.0
14,7.627883548595592
15,-5.865039290427296
16,5.91600530506031
17,-4.789257566883691
18,8.143709208112583
2,1, 1, 1, 0, 1,15.00,30.00,Tuesday
7,-6.949999999999999
8,0.0
9,0.0
10,0.0
11,0.0
12,0.0
13,0.0
14,7.44813558719974
15,-8.332075426551292
16,5.458306694539942
17,-6.990052771626779
18,8.047253198946903
2,1, 1, 1, 0, 1,30.00,45.00,Tuesday
7,-9.575
8,0.0
9,0.0
10,0.0
11,0.0
12,0.0
13,0.0
14,7.249682379650552
15,-10.806972028941095
16,4.994315793479984
17,-9.197699386974705
18,7.9215269822159979
2,1, 1, 1, 0, 1,45.00,60.00,Tuesday
7,-12.2
8,0.0
9,0.0
10,0.0
11,0.0
12,0.0
13,0.0
14,7.036452603683506
15,-13.288494897886415
16,4.515334880389844
17,-11.41294196053883
18,7.77552299917734
2,1, 1, 1, 0, 2, 0.00,15.00,Tuesday
7,-12.075
8,0.0
9,0.0
10,0.0
11,0.0
12,0.0
13,0.0
14,6.968205510524028
15,-13.08911989851954
16,4.42205175932645
17,-11.246096076636036
18,7.643118316483109
2,1, 1, 1, 0, 2,15.00,30.00,Tuesday
7,-11.95
8,0.0
9,0.0
10,0.0
11,0.0
12,0.0
13,0.0
14,6.886572515162612
15,-12.91207586827838
16,4.373520805894032
17,-11.086405088770676
18,7.540179181039475
2,1, 1, 1, 0, 2,30.00,45.00,Tuesday
7,-11.825
8,0.0
9,0.0
10,0.0
11,0.0
12,0.0
13,0.0
14,6.820917950397187
15,-12.733929888118608
16,4.329550770662081
17,-10.92662823186231
18,7.461716632017161
2,1, 1, 1, 0, 2,45.00,60.00,Tuesday
7,-11.7
8,0.0
9,0.0
10,0.0
11,0.0
12,0.0
13,0.0
14,6.765648701111392
15,-12.55586845951659
16,4.297875147582545
17,-10.765217756979553
18,7.397508648584888
2,1, 1, 1, 0, 3, 0.00,15.00,Tuesday
7,-11.549999999999999
8,0.0
9,0.0
10,0.0
11,0.0
12,0.0
13,0.0
14,6.711715661485925
15,-12.428737985364599
16,4.273481955814987
17,-10.627123315542292
18,7.3392432274841499
2,1, 1, 1, 0, 3,15.00,30.00,Tuesday
7,-11.399999999999999
8,0.0
9,0.0
10,0.0
11,0.0
12,0.0
13,0.0
14,6.660644478647728
15,-12.302927309362268
16,4.246129762685882
17,-10.470988878842832
18,7.282793376112703
2,1, 1, 1, 0, 3,30.00,45.00,Tuesday
7,-11.25
8,0.0
9,0.0
10,0.0
11,0.0
12,0.0
13,0.0
14,6.610337318413625
15,-12.178586018766735
16,4.22503401081201
17,-10.332106609281937
18,7.227105307258162
2,1, 1, 1, 0, 3,45.00,60.00,Tuesday
7,-11.1
8,0.0
9,0.0
10,0.0
11,0.0
12,0.0
13,0.0
14,6.560408239378224
15,-12.055765770726348
16,4.202469627645598
17,-10.185074893244746
18,7.172102512582035
2,1, 1, 1, 0, 4, 0.00,15.00,Tuesday
7,-11.1
8,0.0
9,0.0
10,0.0
11,0.0
12,0.0
13,0.0
14,6.506898020520305
15,-12.028739449822626
16,4.147503203764927
17,-10.201769105488836
18,7.117149658907721
2,1, 1, 1, 0, 4,15.00,30.00,Tuesday
7,-11.1
8,0.0
9,0.0
10,0.0
11,0.0
12,0.0
13,0.0
14,6.453831452724901
15,-12.002745669672726
16,4.096064931731519
17,-10.225051983018148
18,7.061981338129327
2,1, 1, 1, 0, 4,30.00,45.00,Tuesday
7,-11.1
8,0.0
9,0.0
10,0.0
11,0.0
12,0.0
13,0.0
14,6.400681211797627
15,-11.978217061269099
16,4.045103611311617
17,-10.24798813185123
18,7.006670511492341
2,1, 1, 1, 0, 4,45.00,60.00,Tuesday
7,-11.1
8,0.0
9,0.0
10,0.0
11,0.0
12,0.0
13,0.0
14,6.347529748199938
15,-11.955027867195968
16,3.9942918632825696
17,-10.270154196175327
18,6.951362778157841
2,1, 1, 1, 0, 5, 0.00,15.00,Tuesday
7,-10.975
8,0.0
9,0.0
10,0.0
11,0.0
12,0.0
13,0.0
14,6.299801844211798
15,-11.833146504323917
16,3.9672858956612346
17,-10.17520596362806
18,6.897047246651869
2,1, 1, 1, 0, 5,15.00,30.00,Tuesday
7,-10.85
8,0.0
9,0.0
10,0.0
11,0.0
12,0.0
13,0.0
14,6.25225600696748
15,-11.711330541649503
16,3.9396246497282165
17,-10.07251617869781
18,6.844147631373767
2,1, 1, 1, 0, 5,30.00,45.00,Tuesday
7,-10.725
8,0.0
9,0.0
10,0.0
11,0.0
12,0.0
13,0.0
14,6.2056494350979289
15,-11.589494064062555
16,3.912385615596918
17,-9.969197787194048
18,6.792478624633904
2,1, 1, 1, 0, 5,45.00,60.00,Tuesday
7,-10.6
8,0.0
9,0.0
10,0.0
11,0.0
12,0.0
13,0.0
14,6.159830514572338
15,-11.46766758724102
16,3.8859377606603404
17,-9.86573795704237
18,6.741719263810462
2,1, 1, 1, 0, 6, 0.00,15.00,Tuesday
7,-10.6
8,0.0
9,0.0
10,0.0
11,0.0
12,0.0
13,0.0
14,6.10726785021248
15,-11.468682446703899
16,3.8393433918198527
17,-9.864689745634565
18,6.690417279317618
2,1, 1, 1, 0, 6,15.00,30.00,Tuesday
7,-10.6
8,0.0
9,0.0
10,0.0
11,0.0
12,0.0
13,0.0
14,6.055333296208071
15,-11.469654252782263
16,3.792684043798431
17,-9.870526963645034
18,6.637909270369497
2,1, 1, 1, 0, 6,30.00,45.00,Tuesday
7,-10.6
8,0.0
9,0.0
10,0.0
11,0.0
12,0.0
13,0.0
14,6.002900358813465
15,-11.470666872993569
16,3.7461241049992397
17,-9.87685515217413
18,6.584451333750695
2,1, 1, 1, 0, 6,45.00,60.00,Tuesday
7,-10.6
8,0.0
9,0.0
10,0.0
11,0.0
12,0.0
13,0.0
14,5.950183754451769
15,-11.471677392934995
16,3.6992036126276277
17,-9.88327980019767
18,6.530520828366558
2,1, 1, 1, 0, 7, 0.00,15.00,Tuesday
7,-10.6
8,0.0
9,0.0
10,0.0
11,0.0
12,0.0
13,0.0
14,5.899423796831753
15,-11.449323295272455
16,3.649637914624577
17,-9.901705052012347
18,6.47680915048661
2,1, 1, 1, 0, 7,15.00,30.00,Tuesday
7,-10.6
8,0.0
9,0.0
10,0.0
11,0.0
12,0.0
13,0.0
14,5.848576853214015
15,-11.428126009331214
16,3.6015141063446665
17,-9.92010309870318
18,6.423656650529105
2,1, 1, 1, 0, 7,30.00,45.00,Tuesday
7,-10.6
8,0.0
9,0.0
10,0.0
11,0.0
12,0.0
13,0.0
14,5.798056045964991
15,-11.408009285451256
16,3.553690619161273
17,-9.93791680422089
18,6.37102173930773
2,1, 1, 1, 0, 7,45.00,60.00,Tuesday
7,-10.6
8,0.0
9,0.0
10,0.0
11,0.0
12,0.0
13,0.0
14,5.747853931915819
15,-11.388909230885798
16,3.5062803057591056
17,-9.955082632052438
18,6.318770147662527
2,1, 1, 1, 0, 8, 0.00,15.00,Tuesday
7,-10.45
8,0.0
9,0.0
10,0.0
11,0.0
12,0.0
13,0.0
14,5.6970353017873409
15,-11.339008386353222
16,3.472510793706533
17,-9.907379327613626
18,6.266420927503113
2,1, 1, 1, 0, 8,15.00,30.00,Tuesday
7,-10.3
8,173.10321145631117
9,1.0
10,22.819555959623899
11,1.0
12,22.819555959623899
13,173.10321145631117
14,5.767842886148502
15,-9.66520242971199
16,3.7510872061652664
17,-9.598997478609249
18,6.2327106194384529
2,1, 1, 1, 0, 8,30.00,45.00,Tuesday
7,-10.15
8,849.9385033316614
9,1.0
10,109.75755355442667
11,1.0
12,109.75755355442667
13,849.9385033316614
14,6.16994869846845
15,-3.29106116838139
16,4.985616863090286
17,-8.543906092580074
18,6.269997821191974
2,1, 1, 1, 0, 8,45.00,60.00,Tuesday
7,-10.0
8,1545.5219247059973
9,1.0
10,195.8764694434918
11,1.0
12,195.8764694434918
13,1545.5219247059973
14,6.668067850933439
15,3.1784887296007269
16,6.413893665699561
17,-7.482355684525999
18,6.385163274158546
2,1, 1, 1, 0, 9, 0.00,15.00,Tuesday
7,-9.725
8,2238.709489075825
9,1.0
10,278.97248314719988
11,1.0
12,278.97248314719988
13,2238.709489075825
14,7.128914943685148
15,8.366599856049968
16,7.78457340518969
17,-6.5426913032051179
18,6.556411288031964
2,1, 1, 1, 0, 9,15.00,30.00,Tuesday
7,-9.45
8,2969.4086166752306
9,1.0
10,364.91995730569456
11,1.0
12,364.91995730569456
13,2969.4086166752306
14,7.58033066811967
15,13.438630418431569
16,9.139000503481953
17,-5.604942226884418
18,6.774626737748914
2,1, 1, 1, 0, 9,30.00,45.00,Tuesday
7,-9.175
8,3452.8363830973496
9,1.0
10,420.35879993239237
11,1.0
12,420.35879993239237
13,3452.8363830973496
14,7.903413757924672
15,16.195655691939689
16,10.070806505448673
17,-5.02116508229858
18,7.019294269859009
2,1, 1, 1, 0, 9,45.00,60.00,Tuesday
7,-8.9
8,3954.6739069548109
9,1.0
10,478.00138373643099
11,1.0
12,478.00138373643099
13,3954.6739069548109
14,8.282575781560937
15,19.189653108650455
16,10.993486879899138
17,-4.415098584210682
18,7.279192558967433
2,1, 1, 1, 0,10, 0.00,15.00,Tuesday
7,-8.350000000000002
8,4467.113842203691
9,1.0
10,536.9185644770597
11,1.0
12,536.9185644770597
13,4467.113842203691
14,8.6100691678558
15,20.30396767705489
16,11.95472235891333
17,-3.702227607374766
18,7.554248609873249
2,1, 1, 1, 0,10,15.00,30.00,Tuesday
7,-7.800000000000001
8,4997.25703813173
9,1.0
10,598.0969199229219
11,1.0
12,598.0969199229219
13,4997.25703813173
14,8.967663447063579
15,21.554578470425825
16,12.93574104018353
17,-3.003607307575976
18,7.850461901595272
2,1, 1, 1, 0,10,30.00,45.00,Tuesday
7,-7.25
8,5345.03712769667
9,1.0
10,637.6133352894237
11,1.0
12,637.6133352894237
13,5345.03712769667
14,9.247573382818356
15,21.612048366086737
16,13.663200859486324
17,-2.5078023252506229
18,7.97574031873512
2,1, 1, 1, 0,10,45.00,60.00,Tuesday
7,-6.7
8,5687.69460126509
9,1.0
10,676.6412284283772
11,1.0
12,676.6412284283772
13,5687.69460126509
14,9.506720338635108
15,21.769204719059077
16,14.33178487712371
17,-2.0062682840010099
18,8.221955451924146
2,1, 1, 1, 0,11, 0.00,15.00,Tuesday
7,-6.275
8,6024.1182617392619
9,1.0
10,715.0112779846514
11,1.0
12,715.0112779846514
13,6024.1182617392619
14,9.813310804471186
15,23.86612620911876
16,14.9860617462042
17,-1.3230395719066337
18,8.411691816288194
2,1, 1, 1, 0,11,15.00,30.00,Tuesday
7,-5.85
8,6352.622926754498
9,1.0
10,752.5077794605232
11,1.0
12,752.5077794605232
13,6352.622926754498
14,10.18669109976766
15,25.80288753788478
16,15.67234881766717
17,-0.6578802283565324
18,8.85530272031798
2,1, 1, 1, 0,11,30.00,45.00,Tuesday
7,-5.425
8,6254.991861714689
9,1.0
10,742.5988714321785
11,1.0
12,742.5988714321785
13,6254.991861714689
14,10.473997041746357
15,25.656420711074934
16,15.887126122084056
17,-0.34349954285175957
18,9.247363089326413
2,1, 1, 1, 0,11,45.00,60.00,Tuesday
7,-5.0
8,6115.488455937522
9,1.0
10,727.8169025450712
11,1.0
12,727.8169025450712
13,6115.488455937522
14,10.723227524978322
15,25.427458686839598
16,16.015255463061977
17,-0.05556024508621249
18,9.580507763234252
2,1, 1, 1, 0,12, 0.00,15.00,Tuesday
7,-4.575
8,5875.584866177884
9,1.0
10,700.3759009170325
11,1.0
12,700.3759009170325
13,5875.584866177884
14,10.899740735914822
15,24.685369752684907
16,15.98059914708574
17,0.18531259934411538
18,9.861606931883339
2,1, 1, 1, 0,12,15.00,30.00,Tuesday
7,-4.15
8,5697.665319314475
9,1.0
10,681.6705029034473
11,1.0
12,681.6705029034473
13,5697.665319314475
14,11.062084369331594
15,24.354600649659806
16,15.990619068102774
17,0.48582243308004538
18,10.104885238085858
2,1, 1, 1, 0,12,30.00,45.00,Tuesday
7,-3.7249999999999998
8,5002.075619844998
9,1.0
10,602.01865277251
11,1.0
12,602.01865277251
13,5002.075619844998
14,11.005440301656997
15,21.327287183426745
16,15.320096041159446
17,0.36091701786915567
18,10.288145097416466
2,1, 1, 1, 0,12,45.00,60.00,Tuesday
7,-3.3
8,4085.257992218691
9,1.0
10,493.55004396206007
11,1.0
12,493.55004396206007
13,4085.257992218691
14,10.81379852416634
15,17.14922794471213
16,14.208414698831234
17,0.009350239941568362
18,10.38527584374336
2,1, 1, 1, 0,13, 0.00,15.00,Tuesday
7,-3.0249999999999996
8,3373.1820495361505
9,1.0
10,412.335026418112
11,1.0
12,412.335026418112
13,3373.1820495361505
14,10.680797243422508
15,14.305882672905442
16,13.304148536248249
17,-0.21367453359619049
18,10.413624859558468
2,1, 1, 1, 0,13,15.00,30.00,Tuesday
7,-2.75
8,2470.545264965054
9,1.0
10,305.94037763660148
11,1.0
12,305.94037763660148
13,2470.545264965054
14,10.36437639068196
15,10.132988378563946
16,12.055777484128157
17,-0.6506249529325601
18,10.383994248360091
2,1, 1, 1, 0,13,30.00,45.00,Tuesday
7,-2.475
8,2255.52037291475
9,1.0
10,281.0763483922329
11,1.0
12,281.0763483922329
13,2255.52037291475
14,10.331327698853987
15,9.620663186792559
16,11.721270435187876
17,-0.4989013967746132
18,10.336307688504878
2,1, 1, 1, 0,13,45.00,60.00,Tuesday
7,-2.2
8,2044.9747465543583
9,1.0
10,256.7721209415886
11,1.0
12,256.7721209415886
13,2044.9747465543583
14,10.296148426861166
15,9.012969798934144
16,11.471846177611269
17,-0.32364520228418316
18,10.295192077383135
2,1, 1, 1, 0,14, 0.00,15.00,Tuesday
7,-1.9250000000000003
8,1670.5363844904799
9,1.0
10,210.73276284570657
11,1.0
12,210.73276284570657
13,1670.5363844904799
14,10.138740561212574
15,7.4587625497874419
16,10.920811757722163
17,-0.3593952330140837
18,10.257481960704466
2,1, 1, 1, 0,14,15.00,30.00,Tuesday
7,-1.6500000000000002
8,1483.9755502209094
9,1.0
10,189.38488290342594
11,1.0
12,189.38488290342594
13,1483.9755502209094
14,10.119825032997336
15,7.068341381065386
16,10.638162227743749
17,-0.20826315212582359
18,10.222617212844032
2,1, 1, 1, 0,14,30.00,45.00,Tuesday
7,-1.375
8,1415.2927051055099
9,1.0
10,179.3940297802914
11,1.0
12,179.3940297802914
13,1415.2927051055099
14,10.106518333014757
15,7.190144004806755
16,10.557367602646366
17,0.036889392340242469
18,10.192542552456896
2,1, 1, 1, 0,14,45.00,60.00,Tuesday
7,-1.1
8,1345.825196147699
9,1.0
10,169.43349014176136
11,1.0
12,169.43349014176136
13,1345.825196147699
14,10.091727110133986
15,7.290547769593757
16,10.467105391460223
17,0.28096978573296385
18,10.167006349431505
2,1, 1, 1, 0,15, 0.00,15.00,Tuesday
7,-1.1
8,1416.5654514198496
9,1.0
10,178.15692317953907
11,1.0
12,178.15692317953907
13,1416.5654514198496
14,10.149900908966242
15,8.108586607696726
16,10.587701866500766
17,0.3994157241380094
18,10.150738096626905
2,1, 1, 1, 0,15,15.00,30.00,Tuesday
7,-1.1
8,1330.8243374281975
9,1.0
10,166.40516310952945
11,1.0
12,166.40516310952945
13,1330.8243374281975
14,10.094618021932643
15,7.744800621778093
16,10.448344398984489
17,0.3464696314147204
18,10.13752913413626
2,1, 1, 1, 0,15,30.00,45.00,Tuesday
7,-1.1
8,1122.127169485654
9,1.0
10,140.8967369711617
11,1.0
12,140.8967369711617
13,1122.127169485654
14,9.98064870498489
15,6.542016842567198
16,10.042644101347037
17,0.13297491634460813
18,10.113972179749167
2,1, 1, 1, 0,15,45.00,60.00,Tuesday
7,-1.1
8,923.4192090985265
9,1.0
10,116.57355796743004
11,1.0
12,116.57355796743004
13,923.4192090985265
14,9.871886703070013
15,5.338120317285638
16,9.648577466611642
17,-0.0817848061172981
18,10.070981315671143
2,1, 1, 1, 0,16, 0.00,15.00,Tuesday
7,-1.1
8,732.8781698368027
9,1.0
10,93.14939272689483
11,1.0
12,93.14939272689483
13,732.8781698368027
14,9.762844250052336
15,4.288847119574341
16,9.290092992009477
17,-0.21397898824761797
18,10.00783386583837
2,1, 1, 1, 0,16,15.00,30.00,Tuesday
7,-1.1
8,454.9720957967563
9,1.0
10,57.94047897402063
11,1.0
12,57.94047897402063
13,454.9720957967563
14,9.564468739816745
15,2.168534223602895
16,8.76336758471598
17,-0.49393670898001576
18,9.91717188761029
2,1, 1, 1, 0,16,30.00,45.00,Tuesday
7,-1.1
8,352.751993514124
9,1.0
10,45.38251793443488
11,1.0
12,45.38251793443488
13,352.751993514124
14,9.481716171116352
15,1.561656022770794
16,8.51768585297674
17,-0.541256289306375
18,9.815549684040449
2,1, 1, 1, 0,16,45.00,60.00,Tuesday
7,-1.1
8,246.24426140340877
9,1.0
10,32.02625108222755
11,1.0
12,32.02625108222755
13,246.24426140340877
14,9.361285740933895
15,0.703367555452853
16,8.290948491000166
17,-0.5975094806423158
18,9.716506181363196
2,1, 1, 1, 0,17, 0.00,15.00,Tuesday
7,-1.1
8,135.06463248996148
9,1.0
10,17.762198626050539
11,1.0
12,17.762198626050539
13,135.06463248996148
14,9.217297056742659
15,-0.5412070032461828
16,8.016691626569014
17,-0.7748398912221433
18,9.61885356530557
2,1, 1, 1, 0,17,15.00,30.00,Tuesday
7,-1.1
8,0.0
9,0.0
10,0.0
11,0.0
12,0.0
13,0.0
14,9.024634794621703
15,-2.3752227195523738
16,7.679785531498851
17,-1.04130211794336
18,9.509823354015364
2,1, 1, 1, 0,17,30.00,45.00,Tuesday
7,-1.1
8,0.0
9,0.0
10,0.0
11,0.0
12,0.0
13,0.0
14,8.96381214522596
15,-2.508112089948017
16,7.573980870089827
17,-1.0548876242273764
18,9.403726257447659
2,1, 1, 1, 0,17,45.00,60.00,Tuesday
7,-1.1
8,0.0
9,0.0
10,0.0
11,0.0
12,0.0
13,0.0
14,8.887666049705747
15,-2.693536393413286
16,7.51473674542342
17,-1.0578402385239088
18,9.314142096293294
2,1, 1, 1, 0,18, 0.00,15.00,Tuesday
7,-1.25
8,0.0
9,0.0
10,0.0
11,0.0
12,0.0
13,0.0
14,8.823086554280679
15,-2.8420704033658756
16,7.426370763276054
17,-1.2049816883976519
18,9.241834091352555
2,1, 1, 1, 0,18,15.00,30.00,Tuesday
7,-1.4
8,0.0
9,0.0
10,0.0
11,0.0
12,0.0
13,0.0
14,8.764106791615827
15,-2.9944804226537378
16,7.353239814605104
17,-1.3420054378843816
18,9.181439737541803
2,1, 1, 1, 0,18,30.00,45.00,Tuesday
7,-1.5499999999999999
8,0.0
9,0.0
10,0.0
11,0.0
12,0.0
13,0.0
14,8.709477731460766
15,-3.1465066708281408
16,7.284787254463481
17,-1.478367712251611
18,9.127469059741115
2,1, 1, 1, 0,18,45.00,60.00,Tuesday
7,-1.7
8,0.0
9,0.0
10,0.0
11,0.0
12,0.0
13,0.0
14,8.656914602816526
15,-3.2986964137168117
16,7.219391262186377
17,-1.6142220985419727
18,9.076499018932564
2,1, 1, 1, 0,19, 0.00,15.00,Tuesday
7,-1.825
8,0.0
9,0.0
10,0.0
11,0.0
12,0.0
13,0.0
14,8.628431854447494
15,-3.1598352211415547
16,7.159673768073958
17,-1.731733580712671
18,9.030524368258808
2,1, 1, 1, 0,19,15.00,30.00,Tuesday
7,-1.9500000000000002
8,0.0
9,0.0
10,0.0
11,0.0
12,0.0
13,0.0
14,8.598787453959205
15,-3.1012462469590207
16,7.108182078910318
17,-1.8498012898105004
18,8.991310650980975
2,1, 1, 1, 0,19,30.00,45.00,Tuesday
7,-2.075
8,0.0
9,0.0
10,0.0
11,0.0
12,0.0
13,0.0
14,8.565066796363637
15,-3.177238430860845
16,7.062467370156924
17,-1.961750315976019
18,8.957264775173363
2,1, 1, 1, 0,19,45.00,60.00,Tuesday
7,-2.2
8,0.0
9,0.0
10,0.0
11,0.0
12,0.0
13,0.0
14,8.534258617350256
15,-3.162219162793863
16,7.015228986746877
17,-2.080190222318265
18,8.925348065249134
2,1, 1, 1, 0,20, 0.00,15.00,Tuesday
7,-1.9250000000000003
8,0.0
9,0.0
10,0.0
11,0.0
12,0.0
13,0.0
14,8.518600618842254
15,-2.8627993538477787
16,7.031284942415823
17,-1.8544434284571026
18,8.895703514726458
2,1, 1, 1, 0,20,15.00,30.00,Tuesday
7,-1.6500000000000002
8,0.0
9,0.0
10,0.0
11,0.0
12,0.0
13,0.0
14,8.503261321621656
15,-2.5662142152678695
16,7.049461008641629
17,-1.61740298912747
18,8.868810635816934
2,1, 1, 1, 0,20,30.00,45.00,Tuesday
7,-1.375
8,0.0
9,0.0
10,0.0
11,0.0
12,0.0
13,0.0
14,8.48952389244595
15,-2.27083575950201
16,7.069021922534944
17,-1.378522781808897
18,8.844406566484663
2,1, 1, 1, 0,20,45.00,60.00,Tuesday
7,-1.1
8,0.0
9,0.0
10,0.0
11,0.0
12,0.0
13,0.0
14,8.47721139338032
15,-1.9766489866887587
16,7.090287236752488
17,-1.1380725461000907
18,8.821925553389754
2,1, 1, 1, 0,21, 0.00,15.00,Tuesday
7,-1.25
8,0.0
9,0.0
10,0.0
11,0.0
12,0.0
13,0.0
14,8.425896387667179
15,-2.250287430300808
16,7.048180775353671
17,-1.2493085745970803
18,8.794899939883893
2,1, 1, 1, 0,21,15.00,30.00,Tuesday
7,-1.4
8,0.0
9,0.0
10,0.0
11,0.0
12,0.0
13,0.0
14,8.37532972005915
15,-2.462850036618841
16,6.993624783387759
17,-1.3687435275847975
18,8.758887529251006
2,1, 1, 1, 0,21,30.00,45.00,Tuesday
7,-1.5499999999999999
8,0.0
9,0.0
10,0.0
11,0.0
12,0.0
13,0.0
14,8.31180640127204
15,-2.797185174350502
16,6.937161562664471
17,-1.4821932261415328
18,8.713059841038703
2,1, 1, 1, 0,21,45.00,60.00,Tuesday
7,-1.7
8,0.0
9,0.0
10,0.0
11,0.0
12,0.0
13,0.0
14,8.242846571799844
15,-3.2375621221065948
16,6.8727258263727439
17,-1.5844272423570374
18,8.659579878765016
2,1, 1, 1, 0,22, 0.00,15.00,Tuesday
7,-1.5499999999999999
8,0.0
9,0.0
10,0.0
11,0.0
12,0.0
13,0.0
14,8.2395417099525
15,-2.7635141758950207
16,6.842676275972622
17,-1.493762320598762
18,8.612058014294542
2,1, 1, 1, 0,22,15.00,30.00,Tuesday
7,-1.4
8,0.0
9,0.0
10,0.0
11,0.0
12,0.0
13,0.0
14,8.225117733495319
15,-2.442481068948712
16,6.842249143800984
17,-1.3837638779444888
18,8.57749889145711
2,1, 1, 1, 0,22,30.00,45.00,Tuesday
7,-1.25
8,0.0
9,0.0
10,0.0
11,0.0
12,0.0
13,0.0
14,8.211133399047764
15,-2.2263973231932718
16,6.844049965104205
17,-1.2651492850312707
18,8.553363836856981
2,1, 1, 1, 0,22,45.00,60.00,Tuesday
7,-1.1
8,0.0
9,0.0
10,0.0
11,0.0
12,0.0
13,0.0
14,8.201093229102997
15,-1.9511958011261557
16,6.849127899727364
17,-1.1424911369090297
18,8.534378354515104
2,1, 1, 1, 0,23, 0.00,15.00,Tuesday
7,-1.25
8,0.0
9,0.0
10,0.0
11,0.0
12,0.0
13,0.0
14,8.149516464394847
15,-2.254391475209835
16,6.777285688088341
17,-1.4338782825022918
18,8.510369623519339
2,1, 1, 1, 0,23,15.00,30.00,Tuesday
7,-1.4
8,0.0
9,0.0
10,0.0
11,0.0
12,0.0
13,0.0
14,8.100095256253795
15,-2.559040980053607
16,6.690630593153742
17,-1.7435772239346648
18,8.476462781155691
2,1, 1, 1, 0,23,30.00,45.00,Tuesday
7,-1.5499999999999999
8,0.0
9,0.0
10,0.0
11,0.0
12,0.0
13,0.0
14,8.046020179055509
15,-2.8643290127223186
16,6.602800326763713
17,-2.050603601387593
18,8.433912060542067
2,1, 1, 1, 0,23,45.00,60.00,Tuesday
7,-1.7
8,0.0
9,0.0
10,0.0
11,0.0
12,0.0
13,0.0
14,7.988142105822966
15,-3.1699616135239707
16,6.511053886187597
17,-2.3578886916017156
18,8.385688417803339
2,1, 1, 1, 0,24, 0.00,15.00,Tuesday
7,-1.7
8,0.0
9,0.0
10,0.0
11,0.0
12,0.0
13,0.0
14,7.9456621087676739
15,-3.2241510087530327
16,6.4589608634306618
17,-2.420406956837496
18,8.337093850339919
2,1, 1, 1, 0,24,15.00,30.00,Tuesday
7,-1.7
8,0.0
9,0.0
10,0.0
11,0.0
12,0.0
13,0.0
14,7.901130377195303
15,-3.278894277005603
16,6.411725153011162
17,-2.483017168209244
18,8.290929399958511
2,1, 1, 1, 0,24,30.00,45.00,Tuesday
7,-1.7
8,0.0
9,0.0
10,0.0
11,0.0
12,0.0
13,0.0
14,7.857667134354669
15,-3.3335337270491665
16,6.364312297990864
17,-2.545702700676543
18,8.24713439908072
2,1, 1, 1, 0,24,45.00,60.00,Tuesday
7,-1.7
8,0.0
9,0.0
10,0.0
11,0.0
12,0.0
13,0.0
14,7.814989016682168
15,-3.388177045418567
16,6.31781677437192
17,-2.6081715169235055
18,8.204718501103296
End of Data
 Number of Records Written=        1152
