Program Version,EnergyPlus, Version 9.5.0-de239b2e5f, YMD=2023.02.13 19:58
1,5,Environment Title[],Latitude[deg],Longitude[deg],Time Zone[],Elevation[m]
2,8,Day of Simulation[],Month[],Day of Month[],DST Indicator[1=yes 0=no],Hour[],StartMinute[],EndMinute[],DayType
3,5,Cumulative Day of Simulation[],Month[],Day of Month[],DST Indicator[1=yes 0=no],DayType  ! When Daily Report Variables Requested
4,2,Cumulative Days of Simulation[],Month[]  ! When Monthly Report Variables Requested
5,1,Cumulative Days of Simulation[] ! When Run Period Report Variables Requested
6,1,Calendar Year of Simulation[] ! When Annual Report Variables Requested
7,1,Environment,Site Outdoor Air Drybulb Temperature [C] !TimeStep
8,1,ZONE ONE,Zone Windows Total Transmitted Solar Radiation Rate [W] !TimeStep
9,1,ZN001:WALL001,Surface Outside Face Sunlit Fraction [] !TimeStep
10,1,ZN001:WALL001,Surface Outside Face Incident Solar Radiation Rate per Area [W/m2] !TimeStep
11,1,ZN001:WALL001:WIN001,Surface Outside Face Sunlit Fraction [] !TimeStep
12,1,ZN001:WALL001:WIN001,Surface Outside Face Incident Solar Radiation Rate per Area [W/m2] !TimeStep
13,1,ZN001:WALL001:WIN001,Surface Window Transmitted Solar Radiation Rate [W] !TimeStep
14,1,ZN001:WALL001,Surface Inside Face Temperature [C] !TimeStep
15,1,ZN001:WALL001,Surface Outside Face Temperature [C] !TimeStep
16,1,ZN001:WALL001:WIN001,Surface Inside Face Temperature [C] !TimeStep
17,1,ZN001:WALL001:WIN001,Surface Outside Face Temperature [C] !TimeStep
18,1,ZONE ONE,Zone Mean Air Temperature [C] !TimeStep
End of Data Dictionary
1,RUN PERIOD 1,  41.98, -87.92,  -6.00, 201.00
2,1, 1, 1, 0, 1, 0.00,15.00,Tuesday
7,-4.324999999999999
8,0.0
9,0.0
10,0.0
11,0.0
12,0.0
13,0.0
14,5.860365242988743
15,-5.897238539342367
16,2.6682347265337968
17,-3.7237013934107496
18,6.305649506258478
2,1, 1, 1, 0, 1,15.00,30.00,Tuesday
7,-6.949999999999999
8,0.0
9,0.0
10,0.0
11,0.0
12,0.0
13,0.0
14,5.672872404255586
15,-8.364757695997728
16,1.902305350679626
17,-5.687854750283805
18,6.1999487910403829
2,1, 1, 1, 0, 1,30.00,45.00,Tuesday
7,-9.575
8,0.0
9,0.0
10,0.0
11,0.0
12,0.0
13,0.0
14,5.46371023571075
15,-10.840348888443057
16,1.130046943753598
17,-7.658036949986581
18,6.059999030746487
2,1, 1, 1, 0, 1,45.00,60.00,Tuesday
7,-12.2
8,0.0
9,0.0
10,0.0
11,0.0
12,0.0
13,0.0
14,5.237473526268712
15,-13.322569109992785
16,0.34300123464140599
17,-9.63636931758856
18,5.8964981322476499
2,1, 1, 1, 0, 2, 0.00,15.00,Tuesday
7,-12.075
8,0.0
9,0.0
10,0.0
11,0.0
12,0.0
13,0.0
14,5.162810353937236
15,-13.123691397384903
16,0.2980053178922617
17,-9.49314894542431
18,5.750136764207489
2,1, 1, 1, 0, 2,15.00,30.00,Tuesday
7,-11.95
8,0.0
9,0.0
10,0.0
11,0.0
12,0.0
13,0.0
14,5.07501186446663
15,-12.946718628079925
16,0.28028988231721999
17,-9.376118874800511
18,5.638797861369483
2,1, 1, 1, 0, 2,30.00,45.00,Tuesday
7,-11.825
8,0.0
9,0.0
10,0.0
11,0.0
12,0.0
13,0.0
14,5.005741348347263
15,-12.768528826370022
16,0.26064011298308289
17,-9.23822922704801
18,5.556027172169053
2,1, 1, 1, 0, 2,45.00,60.00,Tuesday
7,-11.7
8,0.0
9,0.0
10,0.0
11,0.0
12,0.0
13,0.0
14,4.948565588290311
15,-12.590426111537905
16,0.2619617747078564
17,-9.11553561603887
18,5.489777553149483
2,1, 1, 1, 0, 3, 0.00,15.00,Tuesday
7,-11.549999999999999
8,0.0
9,0.0
10,0.0
11,0.0
12,0.0
13,0.0
14,4.8933618980964639
15,-12.46423473484684
16,0.26763424305011088
17,-8.960303355323049
18,5.430478632572604
2,1, 1, 1, 0, 3,15.00,30.00,Tuesday
7,-11.399999999999999
8,0.0
9,0.0
10,0.0
11,0.0
12,0.0
13,0.0
14,4.841612735404955
15,-12.339412399886382
16,0.2830605752812403
17,-8.823496154141879
18,5.37362829407313
2,1, 1, 1, 0, 3,30.00,45.00,Tuesday
7,-11.25
8,0.0
9,0.0
10,0.0
11,0.0
12,0.0
13,0.0
14,4.790797106346893
15,-12.216105313679935
16,0.2969030636277239
17,-8.677686007560056
18,5.3179127970170179
2,1, 1, 1, 0, 3,45.00,60.00,Tuesday
7,-11.1
8,0.0
9,0.0
10,0.0
11,0.0
12,0.0
13,0.0
14,4.740591678028472
15,-12.09437251493167
16,0.3107311695705448
17,-8.531125529522683
18,5.263135287448681
2,1, 1, 1, 0, 4, 0.00,15.00,Tuesday
7,-11.1
8,0.0
9,0.0
10,0.0
11,0.0
12,0.0
13,0.0
14,4.686324728099495
15,-12.066252833158629
16,0.24564465764325406
17,-8.573738778299458
18,5.207942299517158
2,1, 1, 1, 0, 4,15.00,30.00,Tuesday
7,-11.1
8,0.0
9,0.0
10,0.0
11,0.0
12,0.0
13,0.0
14,4.632412219562612
15,-12.03922840037898
16,0.18906228996536357
17,-8.623391171236563
18,5.1518979102036799
2,1, 1, 1, 0, 4,30.00,45.00,Tuesday
7,-11.1
8,0.0
9,0.0
10,0.0
11,0.0
12,0.0
13,0.0
14,4.578147029950909
15,-12.013725943458873
16,0.13367024676057327
17,-8.672948727316168
18,5.095271548670573
2,1, 1, 1, 0, 4,45.00,60.00,Tuesday
7,-11.1
8,0.0
9,0.0
10,0.0
11,0.0
12,0.0
13,0.0
14,4.523709097019541
15,-11.989610811568476
16,0.0786218203286353
17,-8.721470166167308
18,5.038436816479274
2,1, 1, 1, 0, 5, 0.00,15.00,Tuesday
7,-10.975
8,0.0
9,0.0
10,0.0
11,0.0
12,0.0
13,0.0
14,4.475106661906933
15,-11.867723530540986
16,0.0762474139561391
17,-8.64535511206276
18,4.982923084276172
2,1, 1, 1, 0, 5,15.00,30.00,Tuesday
7,-10.85
8,0.0
9,0.0
10,0.0
11,0.0
12,0.0
13,0.0
14,4.426798441957799
15,-11.745900533515265
16,0.0705876383518671
17,-8.56133575854318
18,4.929300615687306
2,1, 1, 1, 0, 5,30.00,45.00,Tuesday
7,-10.725
8,0.0
9,0.0
10,0.0
11,0.0
12,0.0
13,0.0
14,4.37966366530617
15,-11.624051324786587
16,0.0650520141658717
17,-8.476218911062802
18,4.877269010002473
2,1, 1, 1, 0, 5,45.00,60.00,Tuesday
7,-10.6
8,0.0
9,0.0
10,0.0
11,0.0
12,0.0
13,0.0
14,4.333494299853217
15,-11.502210754513366
16,0.06033452472706813
17,-8.390732005377345
18,4.826360668049798
2,1, 1, 1, 0, 6, 0.00,15.00,Tuesday
7,-10.6
8,0.0
9,0.0
10,0.0
11,0.0
12,0.0
13,0.0
14,4.280256692501182
15,-11.503252157906676
16,0.01780222490469896
17,-8.395887514875313
18,4.774789416966491
2,1, 1, 1, 0, 6,15.00,30.00,Tuesday
7,-10.6
8,0.0
9,0.0
10,0.0
11,0.0
12,0.0
13,0.0
14,4.2276644666568858
15,-11.504238743449413
16,-0.022982803803415665
17,-8.407062140015512
18,4.721794975148198
2,1, 1, 1, 0, 6,30.00,45.00,Tuesday
7,-10.6
8,0.0
9,0.0
10,0.0
11,0.0
12,0.0
13,0.0
14,4.174507245669773
15,-11.505268713093495
16,-0.06347564885311385
17,-8.41890069760251
18,4.667697756681884
2,1, 1, 1, 0, 6,45.00,60.00,Tuesday
7,-10.6
8,0.0
9,0.0
10,0.0
11,0.0
12,0.0
13,0.0
14,4.121028923861995
15,-11.506296136003435
16,-0.10430060443076172
17,-8.430945609411083
18,4.613063201016439
2,1, 1, 1, 0, 7, 0.00,15.00,Tuesday
7,-10.6
8,0.0
9,0.0
10,0.0
11,0.0
12,0.0
13,0.0
14,4.0694598607090379
15,-11.483043757016573
16,-0.1580471152580003
17,-8.472963982598913
18,4.558491981838079
2,1, 1, 1, 0, 7,15.00,30.00,Tuesday
7,-10.6
8,0.0
9,0.0
10,0.0
11,0.0
12,0.0
13,0.0
14,4.017756595810791
15,-11.461000614168463
16,-0.20933379673226683
17,-8.515392576890747
18,4.504317151393128
2,1, 1, 1, 0, 7,30.00,45.00,Tuesday
7,-10.6
8,0.0
9,0.0
10,0.0
11,0.0
12,0.0
13,0.0
14,3.9663101060410357
15,-11.440079563922995
16,-0.2599480561002565
17,-8.556920162859342
18,4.45055467668315
2,1, 1, 1, 0, 7,45.00,60.00,Tuesday
7,-10.6
8,0.0
9,0.0
10,0.0
11,0.0
12,0.0
13,0.0
14,3.9151432786749287
15,-11.420213417417113
16,-0.30992939777905806
17,-8.597311038672843
18,4.397128217617393
2,1, 1, 1, 0, 8, 0.00,15.00,Tuesday
7,-10.45
8,0.0
9,0.0
10,0.0
11,0.0
12,0.0
13,0.0
14,3.863615344353057
15,-11.371119837596473
16,-0.31899452547634157
17,-8.542262788722156
18,4.343975928327949
2,1, 1, 1, 0, 8,15.00,30.00,Tuesday
7,-10.3
8,173.10321145631117
9,1.0
10,22.819555959623899
11,1.0
12,22.819555959623899
13,173.10321145631117
14,3.93692002987792
15,-9.697384670457085
16,-0.008059030213985352
17,-8.197734370844046
18,4.310111854349775
2,1, 1, 1, 0, 8,30.00,45.00,Tuesday
7,-10.15
8,849.9385033316614
9,1.0
10,109.75755355442667
11,1.0
12,109.75755355442667
13,849.9385033316614
14,4.3521654109653939
15,-3.3264866324031576
16,1.2768594116276973
17,-7.045314420769273
18,4.3485351576808919
2,1, 1, 1, 0, 8,45.00,60.00,Tuesday
7,-10.0
8,1545.5219247059973
9,1.0
10,195.8764694434918
11,1.0
12,195.8764694434918
13,1545.5219247059973
14,4.914374703389805
15,3.188047578581759
16,2.6634163998941178
17,-5.870585394936029
18,4.4654831950136419
2,1, 1, 1, 0, 9, 0.00,15.00,Tuesday
7,-9.725
8,2238.709489075825
9,1.0
10,278.97248314719988
11,1.0
12,278.97248314719988
13,2238.709489075825
14,5.308574702258993
15,8.327081076378347
16,4.0539298078349479
17,-4.82242218112242
18,4.638823439163582
2,1, 1, 1, 0, 9,15.00,30.00,Tuesday
7,-9.45
8,2969.4086166752306
9,1.0
10,364.91995730569456
11,1.0
12,364.91995730569456
13,2969.4086166752306
14,5.761609538087745
15,13.412057941001498
16,5.563823052975977
17,-3.7456956331701578
18,4.859612438991739
2,1, 1, 1, 0, 9,30.00,45.00,Tuesday
7,-9.175
8,3452.8363830973496
9,1.0
10,420.35879993239237
11,1.0
12,420.35879993239237
13,3452.8363830973496
14,6.0884514675277219
15,16.16881656164801
16,6.531669078100833
17,-3.0803115188545577
18,5.104967707744588
2,1, 1, 1, 0, 9,45.00,60.00,Tuesday
7,-8.9
8,3954.6739069548109
9,1.0
10,478.00138373643099
11,1.0
12,478.00138373643099
13,3954.6739069548109
14,6.468186916729115
15,19.163796703999297
16,7.497967289228768
17,-2.3999033574373245
18,5.363965179045986
2,1, 1, 1, 0,10, 0.00,15.00,Tuesday
7,-8.350000000000002
8,4467.113842203691
9,1.0
10,536.9185644770597
11,1.0
12,536.9185644770597
13,4467.113842203691
14,6.7953547545984549
15,20.28041122011147
16,8.47514203020603
17,-1.7294844391198013
18,5.636801706332389
2,1, 1, 1, 0,10,15.00,30.00,Tuesday
7,-7.800000000000001
8,4997.25703813173
9,1.0
10,598.0969199229219
11,1.0
12,598.0969199229219
13,4997.25703813173
14,7.151921600730465
15,21.532649527932919
16,9.467344113237005
17,-1.057809926621303
18,5.929135366182947
2,1, 1, 1, 0,10,30.00,45.00,Tuesday
7,-7.25
8,5345.03712769667
9,1.0
10,637.6133352894237
11,1.0
12,637.6133352894237
13,5345.03712769667
14,7.430314247171619
15,21.591636897197977
16,10.178684545188844
17,-0.5983634010185597
18,6.051897696029984
2,1, 1, 1, 0,10,45.00,60.00,Tuesday
7,-6.7
8,5687.69460126509
9,1.0
10,676.6412284283772
11,1.0
12,676.6412284283772
13,5687.69460126509
14,7.686763700373329
15,21.750045309424374
16,10.844504716926622
17,-0.14562499162667565
18,6.294566591867197
2,1, 1, 1, 0,11, 0.00,15.00,Tuesday
7,-6.275
8,6024.1182617392619
9,1.0
10,715.0112779846514
11,1.0
12,715.0112779846514
13,6024.1182617392619
14,7.992341315086088
15,23.84690423746607
16,11.56164032043921
17,0.5587866171910605
18,6.48299101185278
2,1, 1, 1, 0,11,15.00,30.00,Tuesday
7,-5.85
8,6352.622926754498
9,1.0
10,752.5077794605232
11,1.0
12,752.5077794605232
13,6352.622926754498
14,8.365623197827912
15,25.7838070100837
16,12.30092484427604
17,1.2386668625375706
18,6.925046393082919
2,1, 1, 1, 0,11,30.00,45.00,Tuesday
7,-5.425
8,6254.991861714689
9,1.0
10,742.5988714321785
11,1.0
12,742.5988714321785
13,6254.991861714689
14,8.654133789829532
15,25.63752344175632
16,12.515814746222646
17,1.5451467767929899
18,7.317595659049539
2,1, 1, 1, 0,11,45.00,60.00,Tuesday
7,-5.0
8,6115.488455937522
9,1.0
10,727.8169025450712
11,1.0
12,727.8169025450712
13,6115.488455937522
14,8.904881946529466
15,25.40856507632388
16,12.650417076209465
17,1.8036769237871795
18,7.6517877398673559
2,1, 1, 1, 0,12, 0.00,15.00,Tuesday
7,-4.575
8,5875.584866177884
9,1.0
10,700.3759009170325
11,1.0
12,700.3759009170325
13,5875.584866177884
14,9.082843465217176
15,24.66648907374085
16,12.626383720624915
17,1.9936103426373393
18,7.934168685757123
2,1, 1, 1, 0,12,15.00,30.00,Tuesday
7,-4.15
8,5697.665319314475
9,1.0
10,681.6705029034473
11,1.0
12,681.6705029034473
13,5697.665319314475
14,9.245425453867613
15,24.33566391479302
16,12.662526847578534
17,2.2485992337208815
18,8.178894357809869
2,1, 1, 1, 0,12,30.00,45.00,Tuesday
7,-3.7249999999999998
8,5002.075619844998
9,1.0
10,602.01865277251
11,1.0
12,602.01865277251
13,5002.075619844998
14,9.190279919873648
15,21.308436001459737
16,11.969386915514292
17,2.002676976004409
18,8.363144502823035
2,1, 1, 1, 0,12,45.00,60.00,Tuesday
7,-3.3
8,4085.257992218691
9,1.0
10,493.55004396206007
11,1.0
12,493.55004396206007
13,4085.257992218691
14,9.001638688944471
15,17.130310711473056
16,10.829085569088818
17,1.4895428634562223
18,8.46043617150131
2,1, 1, 1, 0,13, 0.00,15.00,Tuesday
7,-3.0249999999999996
8,3373.1820495361505
9,1.0
10,412.335026418112
11,1.0
12,412.335026418112
13,3373.1820495361505
14,8.872522660515527
15,14.286622940713296
16,9.919289381171666
17,1.1384305668609614
18,8.48837979429882
2,1, 1, 1, 0,13,15.00,30.00,Tuesday
7,-2.75
8,2470.545264965054
9,1.0
10,305.94037763660148
11,1.0
12,305.94037763660148
13,2470.545264965054
14,8.56301093946951
15,10.114036782507132
16,8.612944840376258
17,0.5394010718657114
18,8.457993895462105
2,1, 1, 1, 0,13,30.00,45.00,Tuesday
7,-2.475
8,2255.52037291475
9,1.0
10,281.0763483922329
11,1.0
12,281.0763483922329
13,2255.52037291475
14,8.541227051719142
15,9.60230386723354
16,8.321304902750854
17,0.6322385514384337
18,8.409962798909385
2,1, 1, 1, 0,13,45.00,60.00,Tuesday
7,-2.2
8,2044.9747465543583
9,1.0
10,256.7721209415886
11,1.0
12,256.7721209415886
13,2044.9747465543583
14,8.504300731218275
15,8.995296569500639
16,8.115384268557819
17,0.754491205224042
18,8.37010038833869
2,1, 1, 1, 0,14, 0.00,15.00,Tuesday
7,-1.9250000000000003
8,1670.5363844904799
9,1.0
10,210.73276284570657
11,1.0
12,210.73276284570657
13,1670.5363844904799
14,8.360640989593387
15,7.448601431805296
16,7.598901747154741
17,0.655712946668018
18,8.33364157318175
2,1, 1, 1, 0,14,15.00,30.00,Tuesday
7,-1.6500000000000002
8,1483.9755502209094
9,1.0
10,189.38488290342594
11,1.0
12,189.38488290342594
13,1483.9755502209094
14,8.325118038358803
15,7.043256378505566
16,7.389645467321202
17,0.7651893976578776
18,8.300581483811149
2,1, 1, 1, 0,14,30.00,45.00,Tuesday
7,-1.375
8,1415.2927051055099
9,1.0
10,179.3940297802914
11,1.0
12,179.3940297802914
13,1415.2927051055099
14,8.315795558828489
15,7.166831992827107
16,7.372388320895993
17,0.9933024192170592
18,8.27291154630266
2,1, 1, 1, 0,14,45.00,60.00,Tuesday
7,-1.1
8,1345.825196147699
9,1.0
10,169.43349014176136
11,1.0
12,169.43349014176136
13,1345.825196147699
14,8.303320098744259
15,7.266328551655826
16,7.348819912572367
17,1.2185392132868174
18,8.250365761525602
2,1, 1, 1, 0,15, 0.00,15.00,Tuesday
7,-1.1
8,1416.5654514198496
9,1.0
10,178.15692317953907
11,1.0
12,178.15692317953907
13,1416.5654514198496
14,8.365133952980635
15,8.083925053756034
16,7.486700199493612
17,1.368068425568481
18,8.236884950462672
2,1, 1, 1, 0,15,15.00,30.00,Tuesday
7,-1.1
8,1330.8243374281975
9,1.0
10,166.40516310952945
11,1.0
12,166.40516310952945
13,1330.8243374281975
14,8.31271812368388
15,7.72191103804572
16,7.35741189630221
17,1.3181213565704866
18,8.226114260545563
2,1, 1, 1, 0,15,30.00,45.00,Tuesday
7,-1.1
8,1122.127169485654
9,1.0
10,140.8967369711617
11,1.0
12,140.8967369711617
13,1122.127169485654
14,8.193402904084247
15,6.515986972797517
16,6.993486676237012
17,1.0974278768686646
18,8.2066093828459
2,1, 1, 1, 0,15,45.00,60.00,Tuesday
7,-1.1
8,923.4192090985265
9,1.0
10,116.57355796743004
11,1.0
12,116.57355796743004
13,923.4192090985265
14,8.065128192996938
15,5.304452420059107
16,6.630952149442237
17,0.8699705604888095
18,8.16960558493427
2,1, 1, 1, 0,16, 0.00,15.00,Tuesday
7,-1.1
8,732.8781698368027
9,1.0
10,93.14939272689483
11,1.0
12,93.14939272689483
13,732.8781698368027
14,7.958903504086537
15,4.257907703947975
16,6.3137706525147909
17,0.7264112918026626
18,8.112563091226003
2,1, 1, 1, 0,16,15.00,30.00,Tuesday
7,-1.1
8,454.9720957967563
9,1.0
10,57.94047897402063
11,1.0
12,57.94047897402063
13,454.9720957967563
14,7.757805338962344
15,2.133976694065625
16,5.815590416524628
17,0.4301414684731526
18,8.02861312886638
2,1, 1, 1, 0,16,30.00,45.00,Tuesday
7,-1.1
8,352.751993514124
9,1.0
10,45.38251793443488
11,1.0
12,45.38251793443488
13,352.751993514124
14,7.679042422325357
15,1.5248840386740832
16,5.612779326863574
17,0.3877666700594773
18,7.9328141659778679
2,1, 1, 1, 0,16,45.00,60.00,Tuesday
7,-1.1
8,246.24426140340877
9,1.0
10,32.02625108222755
11,1.0
12,32.02625108222755
13,246.24426140340877
14,7.560284233395669
15,0.6626375069842854
16,5.419641712841894
17,0.3413963652637335
18,7.838367002088405
2,1, 1, 1, 0,17, 0.00,15.00,Tuesday
7,-1.1
8,135.06463248996148
9,1.0
10,17.762198626050539
11,1.0
12,17.762198626050539
13,135.06463248996148
14,7.416750045957281
15,-0.5869882024843069
16,5.166060454929379
17,0.18910807705049138
18,7.744270775143039
2,1, 1, 1, 0,17,15.00,30.00,Tuesday
7,-1.1
8,0.0
9,0.0
10,0.0
11,0.0
12,0.0
13,0.0
14,7.222595884653206
15,-2.423555977886988
16,4.8227200939820709
17,-0.0942775500846551
18,7.637849432591869
2,1, 1, 1, 0,17,30.00,45.00,Tuesday
7,-1.1
8,0.0
9,0.0
10,0.0
11,0.0
12,0.0
13,0.0
14,7.164846344106499
15,-2.5585386336214337
16,4.757130651885063
17,-0.06487967419411689
18,7.53407472396186
2,1, 1, 1, 0,17,45.00,60.00,Tuesday
7,-1.1
8,0.0
9,0.0
10,0.0
11,0.0
12,0.0
13,0.0
14,7.090863906871528
15,-2.748228828093072
16,4.727057495742088
17,-0.018281926658232807
18,7.446834984866828
2,1, 1, 1, 0,18, 0.00,15.00,Tuesday
7,-1.25
8,0.0
9,0.0
10,0.0
11,0.0
12,0.0
13,0.0
14,7.028171599545606
15,-2.896256911174163
16,4.628960406567444
17,-0.14832291735137916
18,7.376434268328218
2,1, 1, 1, 0,18,15.00,30.00,Tuesday
7,-1.4
8,0.0
9,0.0
10,0.0
11,0.0
12,0.0
13,0.0
14,6.970733296259789
15,-3.0487363339368565
16,4.544790298172018
17,-0.2744661421783121
18,7.31744239775925
2,1, 1, 1, 0,18,30.00,45.00,Tuesday
7,-1.5499999999999999
8,0.0
9,0.0
10,0.0
11,0.0
12,0.0
13,0.0
14,6.9173539056107649
15,-3.2007781476814736
16,4.465180379114599
17,-0.39953951229904308
18,7.2645300290322238
2,1, 1, 1, 0,18,45.00,60.00,Tuesday
7,-1.7
8,0.0
9,0.0
10,0.0
11,0.0
12,0.0
13,0.0
14,6.865844318792038
15,-3.35299230557952
16,4.3882489396559098
17,-0.523792643354227
18,7.214436281145519
2,1, 1, 1, 0,19, 0.00,15.00,Tuesday
7,-1.825
8,0.0
9,0.0
10,0.0
11,0.0
12,0.0
13,0.0
14,6.838759240998129
15,-3.207859958629593
16,4.283336058275665
17,-0.7152117738038442
18,7.168824688507145
2,1, 1, 1, 0,19,15.00,30.00,Tuesday
7,-1.9500000000000002
8,0.0
9,0.0
10,0.0
11,0.0
12,0.0
13,0.0
14,6.810365465908112
15,-3.143828993554633
16,4.195386129953988
17,-0.8929508668370545
18,7.129447024782678
2,1, 1, 1, 0,19,30.00,45.00,Tuesday
7,-2.075
8,0.0
9,0.0
10,0.0
11,0.0
12,0.0
13,0.0
14,6.777564722825316
15,-3.2184239155323977
16,4.134444874911878
17,-1.0146530013359439
18,7.095174782214248
2,1, 1, 1, 0,19,45.00,60.00,Tuesday
7,-2.2
8,0.0
9,0.0
10,0.0
11,0.0
12,0.0
13,0.0
14,6.747336479742826
15,-3.198590011325247
16,4.050305796731095
17,-1.184121289578627
18,7.062938378741355
2,1, 1, 1, 0,20, 0.00,15.00,Tuesday
7,-1.9250000000000003
8,0.0
9,0.0
10,0.0
11,0.0
12,0.0
13,0.0
14,6.733561565213169
15,-2.898044340777224
16,4.113104320133061
17,-1.012766579242225
18,7.033864136887963
2,1, 1, 1, 0,20,15.00,30.00,Tuesday
7,-1.6500000000000002
8,0.0
9,0.0
10,0.0
11,0.0
12,0.0
13,0.0
14,6.720292631372287
15,-2.6004102145215999
16,4.161767331932765
17,-0.8113140416865008
18,7.008561708415295
2,1, 1, 1, 0,20,30.00,45.00,Tuesday
7,-1.375
8,0.0
9,0.0
10,0.0
11,0.0
12,0.0
13,0.0
14,6.709092585601929
15,-2.304034917570765
16,4.216503817207013
17,-0.6148246177478427
18,6.986534139382761
2,1, 1, 1, 0,20,45.00,60.00,Tuesday
7,-1.1
8,0.0
9,0.0
10,0.0
11,0.0
12,0.0
13,0.0
14,6.69964781801308
15,-2.008896490439872
16,4.273995613593684
17,-0.41574755598242066
18,6.966943982919193
2,1, 1, 1, 0,21, 0.00,15.00,Tuesday
7,-1.25
8,0.0
9,0.0
10,0.0
11,0.0
12,0.0
13,0.0
14,6.649389037181132
15,-2.2876767100886465
16,4.240206725509438
17,-0.45619856528963967
18,6.94287354864466
2,1, 1, 1, 0,21,15.00,30.00,Tuesday
7,-1.4
8,0.0
9,0.0
10,0.0
11,0.0
12,0.0
13,0.0
14,6.599812851515395
15,-2.503008322803235
16,4.1858419281570609
17,-0.5323256046423239
18,6.909482788558394
2,1, 1, 1, 0,21,30.00,45.00,Tuesday
7,-1.5499999999999999
8,0.0
9,0.0
10,0.0
11,0.0
12,0.0
13,0.0
14,6.537206018401307
15,-2.8442192664737897
16,4.150076525551185
17,-0.5607934870875511
18,6.8661159847060839
2,1, 1, 1, 0,21,45.00,60.00,Tuesday
7,-1.7
8,0.0
9,0.0
10,0.0
11,0.0
12,0.0
13,0.0
14,6.469433447277359
15,-3.292552532221025
16,4.118596817081766
17,-0.5673684798779846
18,6.815275260232962
2,1, 1, 1, 0,22, 0.00,15.00,Tuesday
7,-1.5499999999999999
8,0.0
9,0.0
10,0.0
11,0.0
12,0.0
13,0.0
14,6.469366131986773
15,-2.8092633316520727
16,4.073221522661413
17,-0.5816695867564476
18,6.769879413744843
2,1, 1, 1, 0,22,15.00,30.00,Tuesday
7,-1.4
8,0.0
9,0.0
10,0.0
11,0.0
12,0.0
13,0.0
14,6.4591506036834229
15,-2.482102696666035
16,4.068638372136434
17,-0.5662916842113646
18,6.737039958923119
2,1, 1, 1, 0,22,30.00,45.00,Tuesday
7,-1.25
8,0.0
9,0.0
10,0.0
11,0.0
12,0.0
13,0.0
14,6.447873152578343
15,-2.263352458808623
16,4.080827268052758
17,-0.49311910132502137
18,6.714643439873796
2,1, 1, 1, 0,22,45.00,60.00,Tuesday
7,-1.1
8,0.0
9,0.0
10,0.0
11,0.0
12,0.0
13,0.0
14,6.440383311137575
15,-1.9831846598431882
16,4.084580127180743
17,-0.44603889861087966
18,6.697462009411852
2,1, 1, 1, 0,23, 0.00,15.00,Tuesday
7,-1.25
8,0.0
9,0.0
10,0.0
11,0.0
12,0.0
13,0.0
14,6.387909605814721
15,-2.2865877025004956
16,3.970064397646752
17,-0.7064749966910995
18,6.6747256366049119
2,1, 1, 1, 0,23,15.00,30.00,Tuesday
7,-1.4
8,0.0
9,0.0
10,0.0
11,0.0
12,0.0
13,0.0
14,6.338648483777229
15,-2.591232163191724
16,3.845838760557683
17,-0.9807605440045109
18,6.641359864981716
2,1, 1, 1, 0,23,30.00,45.00,Tuesday
7,-1.5499999999999999
8,0.0
9,0.0
10,0.0
11,0.0
12,0.0
13,0.0
14,6.284449471299421
15,-2.8965696815958865
16,3.719989168366453
17,-1.2563644216259605
18,6.598731673757856
2,1, 1, 1, 0,23,45.00,60.00,Tuesday
7,-1.7
8,0.0
9,0.0
10,0.0
11,0.0
12,0.0
13,0.0
14,6.22625631037378
15,-3.202246720032797
16,3.5901926981323415
17,-1.533852278256063
18,6.549990855243379
2,1, 1, 1, 0,24, 0.00,15.00,Tuesday
7,-1.7
8,0.0
9,0.0
10,0.0
11,0.0
12,0.0
13,0.0
14,6.184369499624001
15,-3.256378770498082
16,3.5366755481929887
17,-1.599839054647191
18,6.50105253558321
2,1, 1, 1, 0,24,15.00,30.00,Tuesday
7,-1.7
8,0.0
9,0.0
10,0.0
11,0.0
12,0.0
13,0.0
14,6.140409526748158
15,-3.3111148321016
16,3.4864072637714118
17,-1.661795800150344
18,6.4549593088782519
2,1, 1, 1, 0,24,30.00,45.00,Tuesday
7,-1.7
8,0.0
9,0.0
10,0.0
11,0.0
12,0.0
13,0.0
14,6.0976390082885179
15,-3.3657391964091398
16,3.4358893260758238
17,-1.7238287215465107
18,6.411594973172928
2,1, 1, 1, 0,24,45.00,60.00,Tuesday
7,-1.7
8,0.0
9,0.0
10,0.0
11,0.0
12,0.0
13,0.0
14,6.055749929816754
15,-3.420366485020125
16,3.386215797271916
17,-1.785670916084655
18,6.369826792595534
End of Data
 Number of Records Written=        1152
