Program Version,EnergyPlus, Version 9.5.0-de239b2e5f, YMD=2023.02.13 19:58
1,5,Environment Title[],Latitude[deg],Longitude[deg],Time Zone[],Elevation[m]
2,8,Day of Simulation[],Month[],Day of Month[],DST Indicator[1=yes 0=no],Hour[],StartMinute[],EndMinute[],DayType
3,5,Cumulative Day of Simulation[],Month[],Day of Month[],DST Indicator[1=yes 0=no],DayType  ! When Daily Report Variables Requested
4,2,Cumulative Days of Simulation[],Month[]  ! When Monthly Report Variables Requested
5,1,Cumulative Days of Simulation[] ! When Run Period Report Variables Requested
6,1,Calendar Year of Simulation[] ! When Annual Report Variables Requested
7,1,Environment,Site Outdoor Air Drybulb Temperature [C] !TimeStep
8,1,ZONE ONE,Zone Windows Total Transmitted Solar Radiation Rate [W] !TimeStep
9,1,ZN001:WALL001,Surface Outside Face Sunlit Fraction [] !TimeStep
10,1,ZN001:WALL001,Surface Outside Face Incident Solar Radiation Rate per Area [W/m2] !TimeStep
11,1,ZN001:WALL001:WIN001,Surface Outside Face Sunlit Fraction [] !TimeStep
12,1,ZN001:WALL001:WIN001,Surface Outside Face Incident Solar Radiation Rate per Area [W/m2] !TimeStep
13,1,ZN001:WALL001:WIN001,Surface Window Transmitted Solar Radiation Rate [W] !TimeStep
14,1,ZN001:WALL001,Surface Inside Face Temperature [C] !TimeStep
15,1,ZN001:WALL001,Surface Outside Face Temperature [C] !TimeStep
16,1,ZN001:WALL001:WIN001,Surface Inside Face Temperature [C] !TimeStep
17,1,ZN001:WALL001:WIN001,Surface Outside Face Temperature [C] !TimeStep
18,1,ZONE ONE,Zone Mean Air Temperature [C] !TimeStep
End of Data Dictionary
1,RUN PERIOD 1,  41.98, -87.92,  -6.00, 201.00
2,1, 1, 1, 0, 1, 0.00,15.00,Tuesday
7,-4.324999999999999
8,0.0
9,0.0
10,0.0
11,0.0
12,0.0
13,0.0
14,2.089807584780179
15,-5.9658978385106
16,0.5787642985826551
17,-5.130956075713982
18,2.4536804303101369
2,1, 1, 1, 0, 1,15.00,30.00,Tuesday
7,-6.949999999999999
8,0.0
9,0.0
10,0.0
11,0.0
12,0.0
13,0.0
14,1.9159353060022697
15,-8.433777310148067
16,-0.0022593180196395226
17,-7.245666651580791
18,2.3693981851174779
2,1, 1, 1, 0, 1,30.00,45.00,Tuesday
7,-9.575
8,0.0
9,0.0
10,0.0
11,0.0
12,0.0
13,0.0
14,1.721503738034703
15,-10.909999760372078
16,-0.5853398691097027
17,-9.367078184013736
18,2.252773300955837
2,1, 1, 1, 0, 1,45.00,60.00,Tuesday
7,-12.2
8,0.0
9,0.0
10,0.0
11,0.0
12,0.0
13,0.0
14,1.5117734349409607
15,-13.39272967607509
16,-1.1823871299345684
17,-11.496663157968556
18,2.1129105524788187
2,1, 1, 1, 0, 2, 0.00,15.00,Tuesday
7,-12.075
8,0.0
9,0.0
10,0.0
11,0.0
12,0.0
13,0.0
14,1.4562671408397068
15,-13.194263003326434
16,-1.2492795426470025
17,-11.346622418261405
18,1.9861407212595004
2,1, 1, 1, 0, 2,15.00,30.00,Tuesday
7,-11.95
8,0.0
9,0.0
10,0.0
11,0.0
12,0.0
13,0.0
14,1.3860786224063638
15,-13.016955491946416
16,-1.2747076943784919
17,-11.195353132314495
18,1.8902041574491562
2,1, 1, 1, 0, 2,30.00,45.00,Tuesday
7,-11.825
8,0.0
9,0.0
10,0.0
11,0.0
12,0.0
13,0.0
14,1.3325171002700798
15,-12.83846444841647
16,-1.295421243925034
17,-11.043783375977114
18,1.8209081839357738
2,1, 1, 1, 0, 2,45.00,60.00,Tuesday
7,-11.7
8,0.0
9,0.0
10,0.0
11,0.0
12,0.0
13,0.0
14,1.290151763425787
15,-12.660033994050535
16,-1.3036012973707898
17,-10.889805157436968
18,1.7678968017524657
2,1, 1, 1, 0, 3, 0.00,15.00,Tuesday
7,-11.549999999999999
8,0.0
9,0.0
10,0.0
11,0.0
12,0.0
13,0.0
14,1.249405549392235
15,-12.535444277697517
16,-1.3048303381505662
17,-10.760010235542496
18,1.722297496648956
2,1, 1, 1, 0, 3,15.00,30.00,Tuesday
7,-11.399999999999999
8,0.0
9,0.0
10,0.0
11,0.0
12,0.0
13,0.0
14,1.2120881461315428
15,-12.412283891366137
16,-1.3067037258276742
17,-10.622175032343876
18,1.6794356737630465
2,1, 1, 1, 0, 3,30.00,45.00,Tuesday
7,-11.25
8,0.0
9,0.0
10,0.0
11,0.0
12,0.0
13,0.0
14,1.1757879473827005
15,-12.290725824868407
16,-1.3070336458433758
17,-10.483661572072493
18,1.637766025059912
2,1, 1, 1, 0, 3,45.00,60.00,Tuesday
7,-11.1
8,0.0
9,0.0
10,0.0
11,0.0
12,0.0
13,0.0
14,1.14002406117651
15,-12.170831081468906
16,-1.3067178223257657
17,-10.345403414067733
18,1.5969819515255238
2,1, 1, 1, 0, 4, 0.00,15.00,Tuesday
7,-11.1
8,0.0
9,0.0
10,0.0
11,0.0
12,0.0
13,0.0
14,1.1007370694402515
15,-12.140240362865537
16,-1.3487744894096068
17,-10.357883246402821
18,1.556299899075042
2,1, 1, 1, 0, 4,15.00,30.00,Tuesday
7,-11.1
8,0.0
9,0.0
10,0.0
11,0.0
12,0.0
13,0.0
14,1.061861043374094
15,-12.110832810510218
16,-1.3860781650741956
17,-10.377395540635576
18,1.5153979998631542
2,1, 1, 1, 0, 4,30.00,45.00,Tuesday
7,-11.1
8,0.0
9,0.0
10,0.0
11,0.0
12,0.0
13,0.0
14,1.0228734305307062
15,-12.083059352449867
16,-1.4227464051926973
17,-10.396894358121472
18,1.4743288381001854
2,1, 1, 1, 0, 4,45.00,60.00,Tuesday
7,-11.1
8,0.0
9,0.0
10,0.0
11,0.0
12,0.0
13,0.0
14,0.9838420052684845
15,-12.056786742293994
16,-1.4592472069807628
17,-10.41578928970273
18,1.4332297291950876
2,1, 1, 1, 0, 5, 0.00,15.00,Tuesday
7,-10.975
8,0.0
9,0.0
10,0.0
11,0.0
12,0.0
13,0.0
14,0.9504659721226493
15,-11.93455075312258
16,-1.4640848158969675
17,-10.325263874048915
18,1.3931421320097695
2,1, 1, 1, 0, 5,15.00,30.00,Tuesday
7,-10.85
8,0.0
9,0.0
10,0.0
11,0.0
12,0.0
13,0.0
14,0.9172631362470846
15,-11.812410726719796
16,-1.4704128898197269
17,-10.226962903888705
18,1.3545192895584184
2,1, 1, 1, 0, 5,30.00,45.00,Tuesday
7,-10.725
8,0.0
9,0.0
10,0.0
11,0.0
12,0.0
13,0.0
14,0.8849881480767105
15,-11.690250777365364
16,-1.4764599565349955
17,-10.12787861904934
18,1.317180697843331
2,1, 1, 1, 0, 5,45.00,60.00,Tuesday
7,-10.6
8,0.0
9,0.0
10,0.0
11,0.0
12,0.0
13,0.0
14,0.8535015141476258
15,-11.568100909483052
16,-1.4817667862540703
17,-10.028593324939266
18,1.2807925496755526
2,1, 1, 1, 0, 6, 0.00,15.00,Tuesday
7,-10.6
8,0.0
9,0.0
10,0.0
11,0.0
12,0.0
13,0.0
14,0.8147378343387399
15,-11.568896918262846
16,-1.512500336325843
17,-10.03003449188867
18,1.2439055954490837
2,1, 1, 1, 0, 6,15.00,30.00,Tuesday
7,-10.6
8,0.0
9,0.0
10,0.0
11,0.0
12,0.0
13,0.0
14,0.7765881501026606
15,-11.569606685926417
16,-1.5448521924054149
17,-10.0350349829979
18,1.2057419198969873
2,1, 1, 1, 0, 6,30.00,45.00,Tuesday
7,-10.6
8,0.0
9,0.0
10,0.0
11,0.0
12,0.0
13,0.0
14,0.7379185789961794
15,-11.570359863181457
16,-1.5771029887968098
17,-10.040858770280579
18,1.16648055669737
2,1, 1, 1, 0, 6,45.00,60.00,Tuesday
7,-10.6
8,0.0
9,0.0
10,0.0
11,0.0
12,0.0
13,0.0
14,0.6988962535458249
15,-11.571113361746808
16,-1.6096574995549418
17,-10.047025683840502
18,1.126594984244101
2,1, 1, 1, 0, 7, 0.00,15.00,Tuesday
7,-10.6
8,0.0
9,0.0
10,0.0
11,0.0
12,0.0
13,0.0
14,0.6620067383574315
15,-11.545892149052774
16,-1.647038942272843
17,-10.060312842561189
18,1.0867339441862305
2,1, 1, 1, 0, 7,15.00,30.00,Tuesday
7,-10.6
8,0.0
9,0.0
10,0.0
11,0.0
12,0.0
13,0.0
14,0.6249301616388754
15,-11.521980223945644
16,-1.6811611871219157
17,-10.075198555746966
18,1.0473391533619292
2,1, 1, 1, 0, 7,30.00,45.00,Tuesday
7,-10.6
8,0.0
9,0.0
10,0.0
11,0.0
12,0.0
13,0.0
14,0.5881052439154038
15,-11.499278651598216
16,-1.714926984102192
17,-10.089846584504244
18,1.0084468293508318
2,1, 1, 1, 0, 7,45.00,60.00,Tuesday
7,-10.6
8,0.0
9,0.0
10,0.0
11,0.0
12,0.0
13,0.0
14,0.5515694142889418
15,-11.477716479703715
16,-1.7483091634464927
17,-10.103981658359942
18,0.9699449738824024
2,1, 1, 1, 0, 8, 0.00,15.00,Tuesday
7,-10.45
8,0.0
9,0.0
10,0.0
11,0.0
12,0.0
13,0.0
14,0.5141154109990995
15,-11.429813997549389
16,-1.7646761276281496
17,-10.060837076160624
18,0.9313651693719564
2,1, 1, 1, 0, 8,15.00,30.00,Tuesday
7,-10.3
8,81.57789177013138
9,1.0
10,22.819555959623899
11,1.0
12,22.819555959623899
13,81.57789177013138
14,0.5832165293886338
15,-9.75695100444441
16,-1.3624428618496723
17,-9.671383450512906
18,0.9079045793855129
2,1, 1, 1, 0, 8,30.00,45.00,Tuesday
7,-10.15
8,402.7137776253556
9,1.0
10,109.75755355442667
11,1.0
12,109.75755355442667
13,402.7137776253556
14,0.9419964803743688
15,-3.396795653115359
16,0.3039124813667513
17,-8.28737439472934
18,0.9408853986358829
2,1, 1, 1, 0, 8,45.00,60.00,Tuesday
7,-10.0
8,738.0846077388306
9,1.0
10,195.8764694434918
11,1.0
12,195.8764694434918
13,738.0846077388306
14,1.4262707913276319
15,3.1345271470927678
16,2.1022385119247248
17,-6.923367957794312
18,1.0346429958669628
2,1, 1, 1, 0, 9, 0.00,15.00,Tuesday
7,-9.725
8,1077.857775562109
9,1.0
10,278.97248314719988
11,1.0
12,278.97248314719988
13,1077.857775562109
14,1.739269320213741
15,8.268609273185997
16,3.677325845198368
17,-5.750196131498228
18,1.1781895229828972
2,1, 1, 1, 0, 9,15.00,30.00,Tuesday
7,-9.45
8,1441.263091966035
9,1.0
10,364.91995730569456
11,1.0
12,364.91995730569456
13,1441.263091966035
14,2.1228468885215485
15,13.356143857686782
16,5.232324532605617
17,-4.594199820020208
18,1.3629074660989449
2,1, 1, 1, 0, 9,30.00,45.00,Tuesday
7,-9.175
8,1688.2273580618947
9,1.0
10,420.35879993239237
11,1.0
12,420.35879993239237
13,1688.2273580618947
14,2.381430099745816
15,16.114473284786727
16,6.253799272171307
17,-3.895046519762843
18,1.568941232124365
2,1, 1, 1, 0, 9,45.00,60.00,Tuesday
7,-8.9
8,1946.1206995044068
9,1.0
10,478.00138373643099
11,1.0
12,478.00138373643099
13,1946.1206995044068
14,2.6878762416261594
15,19.110125819785976
16,7.279401987066535
17,-3.1670778805604415
18,1.7869937226640034
2,1, 1, 1, 0,10, 0.00,15.00,Tuesday
7,-8.350000000000002
8,2210.7129100732925
9,1.0
10,536.9185644770597
11,1.0
12,536.9185644770597
13,2210.7129100732925
14,2.935384175792443
15,20.23018953378077
16,8.332428055628725
17,-2.4149771745562136
18,2.0230008383981596
2,1, 1, 1, 0,10,15.00,30.00,Tuesday
7,-7.800000000000001
8,2485.0046355360898
9,1.0
10,598.0969199229219
11,1.0
12,598.0969199229219
13,2485.0046355360898
14,3.2089451561256
15,21.48516959087869
16,9.409094888511789
17,-1.6655987142233926
18,2.2750870630267405
2,1, 1, 1, 0,10,30.00,45.00,Tuesday
7,-7.25
8,2668.82856090549
9,1.0
10,637.6133352894237
11,1.0
12,637.6133352894237
13,2668.82856090549
14,3.4139673800696705
15,21.546618135159176
16,10.164101309719286
17,-1.1557736666464962
18,2.528695884302939
2,1, 1, 1, 0,10,45.00,60.00,Tuesday
7,-6.7
8,2849.822143982257
9,1.0
10,676.6412284283772
11,1.0
12,676.6412284283772
13,2849.822143982257
14,3.63589711652851
15,21.708187418650256
16,10.894462160443254
17,-0.6496614469112956
18,2.774799377173039
2,1, 1, 1, 0,11, 0.00,15.00,Tuesday
7,-6.275
8,3027.3217367050217
9,1.0
10,715.0112779846514
11,1.0
12,715.0112779846514
13,3027.3217367050217
14,3.934238483194387
15,23.805610077252707
16,11.659664537573122
17,0.10328195474477298
18,3.0171316953327644
2,1, 1, 1, 0,11,15.00,30.00,Tuesday
7,-5.85
8,3200.387223039
9,1.0
10,752.5077794605232
11,1.0
12,752.5077794605232
13,3200.387223039
14,4.218839525160702
15,25.74049410343956
16,12.412234470756744
17,0.8329090737134948
18,3.260672870866224
2,1, 1, 1, 0,11,30.00,45.00,Tuesday
7,-5.425
8,3153.1277706645407
9,1.0
10,742.5988714321785
11,1.0
12,742.5988714321785
13,3153.1277706645407
14,4.378568069094589
15,25.59226975755028
16,12.507026126439883
17,1.1112434048401383
18,3.489517008794784
2,1, 1, 1, 0,11,45.00,60.00,Tuesday
7,-5.0
8,3083.322272276908
9,1.0
10,727.8169025450712
11,1.0
12,727.8169025450712
13,3083.322272276908
14,4.534075536614384
15,25.362804171689328
16,12.508336330165207
17,1.353085557733607
18,3.692474027525704
2,1, 1, 1, 0,12, 0.00,15.00,Tuesday
7,-4.575
8,2962.924916620008
9,1.0
10,700.3759009170325
11,1.0
12,700.3759009170325
13,2962.924916620008
14,4.638674434730127
15,24.619976243010425
16,12.331511608181586
17,1.5200435664573889
18,3.8641377354938908
2,1, 1, 1, 0,12,15.00,30.00,Tuesday
7,-4.15
8,2870.5418011752378
9,1.0
10,681.6705029034473
11,1.0
12,681.6705029034473
13,2870.5418011752378
14,4.762182797664429
15,24.289296825597167
16,12.262647150760131
17,1.7693642329086288
18,4.011864368116671
2,1, 1, 1, 0,12,30.00,45.00,Tuesday
7,-3.7249999999999998
8,2514.7435237820238
9,1.0
10,602.01865277251
11,1.0
12,602.01865277251
13,2514.7435237820238
14,4.674261848815152
15,21.260830909858954
16,11.336299064242212
17,1.4666139144973159
18,4.117177935799709
2,1, 1, 1, 0,12,45.00,60.00,Tuesday
7,-3.3
8,2050.7140932970917
9,1.0
10,493.55004396206007
11,1.0
12,493.55004396206007
13,2050.7140932970917
14,4.489604411421176
15,17.082059697000763
16,9.905735015070605
17,0.8738424224931123
18,4.161353217306176
2,1, 1, 1, 0,13, 0.00,15.00,Tuesday
7,-3.0249999999999996
8,1684.8098149581206
9,1.0
10,412.335026418112
11,1.0
12,412.335026418112
13,1684.8098149581206
14,4.357506271944879
15,14.237169823050323
16,8.795983549141738
17,0.4709488850400021
18,4.157526212224027
2,1, 1, 1, 0,13,15.00,30.00,Tuesday
7,-2.75
8,1226.9263846956772
9,1.0
10,305.94037763660148
11,1.0
12,305.94037763660148
13,1226.9263846956772
14,4.09202304124038
15,10.063192106751686
16,7.255030491880916
17,-0.19912876393118496
18,4.111323587493031
2,1, 1, 1, 0,13,30.00,45.00,Tuesday
7,-2.475
8,1116.7151556744887
9,1.0
10,281.0763483922329
11,1.0
12,281.0763483922329
13,1116.7151556744887
14,4.074388844694377
15,9.549538349193473
16,6.900336718723338
17,-0.10951033471440042
18,4.052480840287381
2,1, 1, 1, 0,13,45.00,60.00,Tuesday
7,-2.2
8,1008.776798040009
9,1.0
10,256.7721209415886
11,1.0
12,256.7721209415886
13,1008.776798040009
14,4.042528540474492
15,8.942678199607869
16,6.604310165067204
17,0.0038605884573144069
18,4.003209413184285
2,1, 1, 1, 0,14, 0.00,15.00,Tuesday
7,-1.9250000000000003
8,822.0053510600566
9,1.0
10,210.73276284570657
11,1.0
12,210.73276284570657
13,822.0053510600566
14,3.9330595672989716
15,7.393845338092745
16,5.930347982128126
17,-0.1415742644974216
18,3.9594139545131257
2,1, 1, 1, 0,14,15.00,30.00,Tuesday
7,-1.6500000000000002
8,726.3834955382383
9,1.0
10,189.38488290342594
11,1.0
12,189.38488290342594
13,726.3834955382383
14,3.907735790234805
15,6.988406026317862
16,5.633360086113839
17,-0.051485649767471389
18,3.921572591367096
2,1, 1, 1, 0,14,30.00,45.00,Tuesday
7,-1.375
8,694.0193821649918
9,1.0
10,179.3940297802914
11,1.0
12,179.3940297802914
13,694.0193821649918
14,3.9081382729745
15,7.109308858075758
16,5.537413618649566
17,0.15760809302838653
18,3.8917548947581168
2,1, 1, 1, 0,14,45.00,60.00,Tuesday
7,-1.1
8,660.8107795174899
9,1.0
10,169.43349014176136
11,1.0
12,169.43349014176136
13,660.8107795174899
14,3.908158115524396
15,7.2069452469277499
16,5.438926994071608
17,0.36492574568524108
18,3.8692990416943076
2,1, 1, 1, 0,15, 0.00,15.00,Tuesday
7,-1.1
8,694.755045768412
9,1.0
10,178.15692317953907
11,1.0
12,178.15692317953907
13,694.755045768412
14,3.957764266474574
15,8.022230261797607
16,5.593541034631983
17,0.5084120585764254
18,3.8570310729141457
2,1, 1, 1, 0,15,15.00,30.00,Tuesday
7,-1.1
8,652.5555330070315
9,1.0
10,166.40516310952945
11,1.0
12,166.40516310952945
13,652.5555330070315
14,3.920091870188224
15,7.658360185888888
16,5.409121563297504
17,0.421847796686734
18,3.848994044459911
2,1, 1, 1, 0,15,30.00,45.00,Tuesday
7,-1.1
8,548.3234552560667
9,1.0
10,140.8967369711617
11,1.0
12,140.8967369711617
13,548.3234552560667
14,3.829300089468203
15,6.450377160025213
16,4.9619504590543219
17,0.1480225832252131
18,3.832063997966358
2,1, 1, 1, 0,15,45.00,60.00,Tuesday
7,-1.1
8,449.4876351255831
9,1.0
10,116.57355796743004
11,1.0
12,116.57355796743004
13,449.4876351255831
14,3.723944519029772
15,5.233876981629012
16,4.511008688850666
17,-0.13970650945566377
18,3.799928157799974
2,1, 1, 1, 0,16, 0.00,15.00,Tuesday
7,-1.1
8,355.27351221521027
9,1.0
10,93.14939272689483
11,1.0
12,93.14939272689483
13,355.27351221521027
14,3.641134677355382
15,4.184675015884231
16,4.073913239469675
17,-0.36325657874647279
18,3.7535262856622304
2,1, 1, 1, 0,16,15.00,30.00,Tuesday
7,-1.1
8,219.6517842311605
9,1.0
10,57.94047897402063
11,1.0
12,57.94047897402063
13,219.6517842311605
14,3.4751972848941818
15,2.0544895364925535
16,3.3627735369270796
17,-0.789460122015555
18,3.689588144138118
2,1, 1, 1, 0,16,30.00,45.00,Tuesday
7,-1.1
8,169.5187556139424
9,1.0
10,45.38251793443488
11,1.0
12,45.38251793443488
13,169.5187556139424
14,3.4140817708703015
15,1.4380116586214276
16,3.0849910082530416
17,-0.9125728983228783
18,3.6162220010122358
2,1, 1, 1, 0,16,45.00,60.00,Tuesday
7,-1.1
8,117.85647239998832
9,1.0
10,32.02625108222755
11,1.0
12,32.02625108222755
13,117.85647239998832
14,3.320444698558992
15,0.5674654484087646
16,2.8110057223129845
17,-1.056428377098939
18,3.5399215054495087
2,1, 1, 1, 0,17, 0.00,15.00,Tuesday
7,-1.1
8,64.4617706779307
9,1.0
10,17.762198626050539
11,1.0
12,17.762198626050539
13,64.4617706779307
14,3.198458851699169
15,-0.6937948767649091
16,2.4784495680065676
17,-1.3395390504632588
18,3.457741642734065
2,1, 1, 1, 0,17,15.00,30.00,Tuesday
7,-1.1
8,0.0
9,0.0
10,0.0
11,0.0
12,0.0
13,0.0
14,3.028182026961077
15,-2.53542808001789
16,2.068956856894033
17,-1.6881390117725346
18,3.3609840488607007
2,1, 1, 1, 0,17,30.00,45.00,Tuesday
7,-1.1
8,0.0
9,0.0
10,0.0
11,0.0
12,0.0
13,0.0
14,2.97982721265531
15,-2.6757077981847279
16,1.9770540636578745
17,-1.7441019363471924
18,3.265351951094484
2,1, 1, 1, 0,17,45.00,60.00,Tuesday
7,-1.1
8,0.0
9,0.0
10,0.0
11,0.0
12,0.0
13,0.0
14,2.917220142526713
15,-2.8746230897418059
16,1.9181929692668974
17,-1.8063945362160894
18,3.184719949741366
2,1, 1, 1, 0,18, 0.00,15.00,Tuesday
7,-1.25
8,0.0
9,0.0
10,0.0
11,0.0
12,0.0
13,0.0
14,2.8662697993840795
15,-3.0214382487380484
16,1.8375069932559996
17,-1.9490995447404203
18,3.1212385312410797
2,1, 1, 1, 0,18,15.00,30.00,Tuesday
7,-1.4
8,0.0
9,0.0
10,0.0
11,0.0
12,0.0
13,0.0
14,2.820414825581852
15,-3.173789784421206
16,1.7701306966804964
17,-2.0806989122501706
18,3.0707049281158969
2,1, 1, 1, 0,18,30.00,45.00,Tuesday
7,-1.5499999999999999
8,0.0
9,0.0
10,0.0
11,0.0
12,0.0
13,0.0
14,2.7790678360987357
15,-3.3255353735381059
16,1.7070148386450229
17,-2.211925052934589
18,3.0280340901321387
2,1, 1, 1, 0,18,45.00,60.00,Tuesday
7,-1.7
8,0.0
9,0.0
10,0.0
11,0.0
12,0.0
13,0.0
14,2.741155738177046
15,-3.477450186643565
16,1.6471670889262669
17,-2.342274624920776
18,2.9897534575022899
2,1, 1, 1, 0,19, 0.00,15.00,Tuesday
7,-1.825
8,0.0
9,0.0
10,0.0
11,0.0
12,0.0
13,0.0
14,2.7296452720773356
15,-3.317983625649984
16,1.6146686641139923
17,-2.3739929578570129
18,2.9576045026016386
2,1, 1, 1, 0,19,15.00,30.00,Tuesday
7,-1.9500000000000002
8,0.0
9,0.0
10,0.0
11,0.0
12,0.0
13,0.0
14,2.717686030545704
15,-3.2412128286265426
16,1.585170330904134
17,-2.428154024729565
18,2.933072655999959
2,1, 1, 1, 0,19,30.00,45.00,Tuesday
7,-2.075
8,0.0
9,0.0
10,0.0
11,0.0
12,0.0
13,0.0
14,2.7007492876896626
15,-3.312270310966178
16,1.550089910886129
17,-2.5191763481143427
18,2.9144008190610948
2,1, 1, 1, 0,19,45.00,60.00,Tuesday
7,-2.2
8,0.0
9,0.0
10,0.0
11,0.0
12,0.0
13,0.0
14,2.6871457659259665
15,-3.2812512596253184
16,1.522622078970926
17,-2.588343022453273
18,2.8985679394929249
2,1, 1, 1, 0,20, 0.00,15.00,Tuesday
7,-1.9250000000000003
8,0.0
9,0.0
10,0.0
11,0.0
12,0.0
13,0.0
14,2.6896348466092245
15,-2.9778618931039628
16,1.5740395385709008
17,-2.3564125189020048
18,2.885530437249331
2,1, 1, 1, 0,20,15.00,30.00,Tuesday
7,-1.6500000000000002
8,0.0
9,0.0
10,0.0
11,0.0
12,0.0
13,0.0
14,2.692469571614772
15,-2.677697538531457
16,1.6263117689013598
17,-2.1166452535217106
18,2.875543982844221
2,1, 1, 1, 0,20,30.00,45.00,Tuesday
7,-1.375
8,0.0
9,0.0
10,0.0
11,0.0
12,0.0
13,0.0
14,2.696802061060962
15,-2.3789114892361264
16,1.6800382648245887
17,-1.8753592364068937
18,2.868234326099336
2,1, 1, 1, 0,20,45.00,60.00,Tuesday
7,-1.1
8,0.0
9,0.0
10,0.0
11,0.0
12,0.0
13,0.0
14,2.7025743249535525
15,-2.0814801874964568
16,1.7355057755523263
17,-1.6326911722906062
18,2.862994418435745
2,1, 1, 1, 0,21, 0.00,15.00,Tuesday
7,-1.25
8,0.0
9,0.0
10,0.0
11,0.0
12,0.0
13,0.0
14,2.6633248142338155
15,-2.371622421849522
16,1.6839821835576459
17,-1.7868563613058655
18,2.853362619529843
2,1, 1, 1, 0,21,15.00,30.00,Tuesday
7,-1.4
8,0.0
9,0.0
10,0.0
11,0.0
12,0.0
13,0.0
14,2.6252483686714096
15,-2.5929081342837705
16,1.630319046309296
17,-1.9280317651410429
18,2.834612066636783
2,1, 1, 1, 0,21,30.00,45.00,Tuesday
7,-1.5499999999999999
8,0.0
9,0.0
10,0.0
11,0.0
12,0.0
13,0.0
14,2.573065069545371
15,-2.9490512288018397
16,1.5646616911019465
17,-2.10104536983107
18,2.8053451799890096
2,1, 1, 1, 0,21,45.00,60.00,Tuesday
7,-1.7
8,0.0
9,0.0
10,0.0
11,0.0
12,0.0
13,0.0
14,2.5155485270984037
15,-3.4144091273904326
16,1.485378755550073
17,-2.3046129061132207
18,2.7672957738220544
2,1, 1, 1, 0,22, 0.00,15.00,Tuesday
7,-1.5499999999999999
8,0.0
9,0.0
10,0.0
11,0.0
12,0.0
13,0.0
14,2.531088626918259
15,-2.9109168787904085
16,1.5047682081635117
17,-2.1062868341350624
18,2.734276647349797
2,1, 1, 1, 0,22,15.00,30.00,Tuesday
7,-1.4
8,0.0
9,0.0
10,0.0
11,0.0
12,0.0
13,0.0
14,2.5381714004548576
15,-2.5699063291013997
16,1.5451329446490263
17,-1.9421312049501012
18,2.714246241387733
2,1, 1, 1, 0,22,30.00,45.00,Tuesday
7,-1.25
8,0.0
9,0.0
10,0.0
11,0.0
12,0.0
13,0.0
14,2.5429041880679388
15,-2.3449576420293867
16,1.576821255625532
17,-1.7997370598557155
18,2.7053433204291248
2,1, 1, 1, 0,22,45.00,60.00,Tuesday
7,-1.1
8,0.0
9,0.0
10,0.0
11,0.0
12,0.0
13,0.0
14,2.551446687075475
15,-2.0536891421965177
16,1.6148361807190668
17,-1.6236010781329924
18,2.7024987540102418
2,1, 1, 1, 0,23, 0.00,15.00,Tuesday
7,-1.25
8,0.0
9,0.0
10,0.0
11,0.0
12,0.0
13,0.0
14,2.5126505282393225
15,-2.3573419338372725
16,1.5369457816084378
17,-1.9080069886888396
18,2.6956404114320198
2,1, 1, 1, 0,23,15.00,30.00,Tuesday
7,-1.4
8,0.0
9,0.0
10,0.0
11,0.0
12,0.0
13,0.0
14,2.476046450502325
15,-2.661864210696796
16,1.445200819894069
17,-2.2014573305960996
18,2.6791972208661609
2,1, 1, 1, 0,23,30.00,45.00,Tuesday
7,-1.5499999999999999
8,0.0
9,0.0
10,0.0
11,0.0
12,0.0
13,0.0
14,2.435559645707022
15,-2.966998742666339
16,1.35226676164325
17,-2.4948718578477839
18,2.6536191135125808
2,1, 1, 1, 0,23,45.00,60.00,Tuesday
7,-1.7
8,0.0
9,0.0
10,0.0
11,0.0
12,0.0
13,0.0
14,2.3913839137924119
15,-3.272483686387802
16,1.255994579223568
17,-2.7887304077068508
18,2.6215025510810499
2,1, 1, 1, 0,24, 0.00,15.00,Tuesday
7,-1.7
8,0.0
9,0.0
10,0.0
11,0.0
12,0.0
13,0.0
14,2.3650254574158007
15,-3.326227183339438
16,1.2161472939156966
17,-2.84805174593464
18,2.5882586380298697
2,1, 1, 1, 0,24,15.00,30.00,Tuesday
7,-1.7
8,0.0
9,0.0
10,0.0
11,0.0
12,0.0
13,0.0
14,2.335580974695596
15,-3.380752596593212
16,1.180601434507821
17,-2.9070423583866615
18,2.5569855018458416
2,1, 1, 1, 0,24,30.00,45.00,Tuesday
7,-1.7
8,0.0
9,0.0
10,0.0
11,0.0
12,0.0
13,0.0
14,2.306888528194093
15,-3.4351372965389879
16,1.1444565912687495
17,-2.9662529752528146
18,2.5279180580643967
2,1, 1, 1, 0,24,45.00,60.00,Tuesday
7,-1.7
8,0.0
9,0.0
10,0.0
11,0.0
12,0.0
13,0.0
14,2.2788329498752004
15,-3.489522303841636
16,1.1090079836475298
17,-3.0252555617892655
18,2.500242153645715
End of Data
 Number of Records Written=        1152
