Program Version,EnergyPlus, Version 9.5.0-de239b2e5f, YMD=2023.02.13 19:58
1,5,Environment Title[],Latitude[deg],Longitude[deg],Time Zone[],Elevation[m]
2,8,Day of Simulation[],Month[],Day of Month[],DST Indicator[1=yes 0=no],Hour[],StartMinute[],EndMinute[],DayType
3,5,Cumulative Day of Simulation[],Month[],Day of Month[],DST Indicator[1=yes 0=no],DayType  ! When Daily Report Variables Requested
4,2,Cumulative Days of Simulation[],Month[]  ! When Monthly Report Variables Requested
5,1,Cumulative Days of Simulation[] ! When Run Period Report Variables Requested
6,1,Calendar Year of Simulation[] ! When Annual Report Variables Requested
7,1,Environment,Site Outdoor Air Drybulb Temperature [C] !TimeStep
8,1,ZONE ONE,Zone Windows Total Transmitted Solar Radiation Rate [W] !TimeStep
9,1,ZN001:WALL001,Surface Outside Face Sunlit Fraction [] !TimeStep
10,1,ZN001:WALL001,Surface Outside Face Incident Solar Radiation Rate per Area [W/m2] !TimeStep
11,1,ZN001:WALL001:WIN001,Surface Outside Face Sunlit Fraction [] !TimeStep
12,1,ZN001:WALL001:WIN001,Surface Outside Face Incident Solar Radiation Rate per Area [W/m2] !TimeStep
13,1,ZN001:WALL001:WIN001,Surface Window Transmitted Solar Radiation Rate [W] !TimeStep
14,1,ZN001:WALL001,Surface Inside Face Temperature [C] !TimeStep
15,1,ZN001:WALL001,Surface Outside Face Temperature [C] !TimeStep
16,1,ZN001:WALL001:WIN001,Surface Inside Face Temperature [C] !TimeStep
17,1,ZN001:WALL001:WIN001,Surface Outside Face Temperature [C] !TimeStep
18,1,ZONE ONE,Zone Mean Air Temperature [C] !TimeStep
End of Data Dictionary
1,RUN PERIOD 1,  41.98, -87.92,  -6.00, 201.00
2,1, 1, 1, 0, 1, 0.00,15.00,Tuesday
7,-4.324999999999999
8,0.0
9,0.0
10,0.0
11,0.0
12,0.0
13,0.0
14,6.931839085507292
15,-5.877710170899318
16,4.639536034534672
17,-4.3684707784077549
18,7.420405739384208
2,1, 1, 1, 0, 1,15.00,30.00,Tuesday
7,-6.949999999999999
8,0.0
9,0.0
10,0.0
11,0.0
12,0.0
13,0.0
14,6.749252643040193
15,-8.34493952559666
16,4.071094620988788
17,-6.482978506194172
18,7.320727739288322
2,1, 1, 1, 0, 1,30.00,45.00,Tuesday
7,-9.575
8,0.0
9,0.0
10,0.0
11,0.0
12,0.0
13,0.0
14,6.54692509453534
15,-10.82009922137432
16,3.4962900462252266
17,-8.603855243917565
18,7.190014459234209
2,1, 1, 1, 0, 1,45.00,60.00,Tuesday
7,-12.2
8,0.0
9,0.0
10,0.0
11,0.0
12,0.0
13,0.0
14,6.32900334119061
15,-13.301886088785415
16,2.906515524694669
17,-10.732288717764732
18,7.0378549646564709
2,1, 1, 1, 0, 2, 0.00,15.00,Tuesday
7,-12.075
8,0.0
9,0.0
10,0.0
11,0.0
12,0.0
13,0.0
14,6.258510697032119
15,-13.102701715286314
16,2.829938294592239
17,-10.570337259746225
18,6.90051403537514
2,1, 1, 1, 0, 2,15.00,30.00,Tuesday
7,-11.95
8,0.0
9,0.0
10,0.0
11,0.0
12,0.0
13,0.0
14,6.174662524320511
15,-12.925682329922351
16,2.790444684490012
17,-10.422521029778637
18,6.794556178402043
2,1, 1, 1, 0, 2,30.00,45.00,Tuesday
7,-11.825
8,0.0
9,0.0
10,0.0
11,0.0
12,0.0
13,0.0
14,6.107726399226561
15,-12.747521351574062
16,2.7564442388855925
17,-10.274383289832429
18,6.714532383205207
2,1, 1, 1, 0, 2,45.00,60.00,Tuesday
7,-11.7
8,0.0
9,0.0
10,0.0
11,0.0
12,0.0
13,0.0
14,6.051748938059091
15,-12.56944392437556
16,2.735062916294396
17,-10.123856880252788
18,6.649560318817347
2,1, 1, 1, 0, 3, 0.00,15.00,Tuesday
7,-11.549999999999999
8,0.0
9,0.0
10,0.0
11,0.0
12,0.0
13,0.0
14,5.997341478877114
15,-12.442683135160286
16,2.7205130151291998
17,-9.97543087315961
18,6.590874475451985
2,1, 1, 1, 0, 3,15.00,30.00,Tuesday
7,-11.399999999999999
8,0.0
9,0.0
10,0.0
11,0.0
12,0.0
13,0.0
14,5.946054333716957
15,-12.31726157539368
16,2.7112141786032
17,-9.836304331769611
18,6.534283916145531
2,1, 1, 1, 0, 3,30.00,45.00,Tuesday
7,-11.25
8,0.0
9,0.0
10,0.0
11,0.0
12,0.0
13,0.0
14,5.895491683018806
15,-12.193325161128796
16,2.697023672151431
17,-9.67810494270526
18,6.478520308604915
2,1, 1, 1, 0, 3,45.00,60.00,Tuesday
7,-11.1
8,0.0
9,0.0
10,0.0
11,0.0
12,0.0
13,0.0
14,5.845482668174657
15,-12.07093531140999
16,2.689938249991087
17,-9.538123120185447
18,6.423543768023127
2,1, 1, 1, 0, 4, 0.00,15.00,Tuesday
7,-11.1
8,0.0
9,0.0
10,0.0
11,0.0
12,0.0
13,0.0
14,5.791689055099231
15,-12.04347819521686
16,2.6319250391571815
17,-9.566435195181839
18,6.368490947695471
2,1, 1, 1, 0, 4,15.00,30.00,Tuesday
7,-11.1
8,0.0
9,0.0
10,0.0
11,0.0
12,0.0
13,0.0
14,5.738330054367976
15,-12.017077453840246
16,2.5792147826474549
17,-9.601207195239113
18,6.313026471646411
2,1, 1, 1, 0, 4,30.00,45.00,Tuesday
7,-11.1
8,0.0
9,0.0
10,0.0
11,0.0
12,0.0
13,0.0
14,5.684802157845238
15,-11.992164175807666
16,2.5271912629443706
17,-9.635556447664044
18,6.257277508244103
2,1, 1, 1, 0, 4,45.00,60.00,Tuesday
7,-11.1
8,0.0
9,0.0
10,0.0
11,0.0
12,0.0
13,0.0
14,5.631217546770426
15,-11.968609363919871
16,2.475374025540873
17,-9.668924305757855
18,6.201461126381861
2,1, 1, 1, 0, 5, 0.00,15.00,Tuesday
7,-10.975
8,0.0
9,0.0
10,0.0
11,0.0
12,0.0
13,0.0
14,5.5832036322503
15,-11.846724589676164
16,2.4574030008037655
17,-9.581037483314617
18,6.1467495632127548
2,1, 1, 1, 0, 5,15.00,30.00,Tuesday
7,-10.85
8,0.0
9,0.0
10,0.0
11,0.0
12,0.0
13,0.0
14,5.53540612757537
15,-11.724905136120608
16,2.437563950522531
17,-9.485112924008718
18,6.09361215225299
2,1, 1, 1, 0, 5,30.00,45.00,Tuesday
7,-10.725
8,0.0
9,0.0
10,0.0
11,0.0
12,0.0
13,0.0
14,5.488628045345858
15,-11.603063342569138
16,2.418054954189529
17,-9.388393461939586
18,6.0418235231108678
2,1, 1, 1, 0, 5,45.00,60.00,Tuesday
7,-10.6
8,0.0
9,0.0
10,0.0
11,0.0
12,0.0
13,0.0
14,5.442697392795427
15,-11.481231110065569
16,2.3993581075756085
17,-9.291460896069112
18,5.991014625328985
2,1, 1, 1, 0, 6, 0.00,15.00,Tuesday
7,-10.6
8,0.0
9,0.0
10,0.0
11,0.0
12,0.0
13,0.0
14,5.3898974257931588
15,-11.482255463635357
16,2.35391100445554
17,-9.292536057030475
18,5.939614366285523
2,1, 1, 1, 0, 6,15.00,30.00,Tuesday
7,-10.6
8,0.0
9,0.0
10,0.0
11,0.0
12,0.0
13,0.0
14,5.337733702585337
15,-11.483232572850158
16,2.3093089602298848
17,-9.300282732107462
18,5.88692935108998
2,1, 1, 1, 0, 6,30.00,45.00,Tuesday
7,-10.6
8,0.0
9,0.0
10,0.0
11,0.0
12,0.0
13,0.0
14,5.285046161575685
15,-11.484251325491842
16,2.2648719968123034
17,-9.308582622550376
18,5.833241231894084
2,1, 1, 1, 0, 6,45.00,60.00,Tuesday
7,-10.6
8,0.0
9,0.0
10,0.0
11,0.0
12,0.0
13,0.0
14,5.232061774898403
15,-11.485267779748816
16,2.2200770644223555
17,-9.317014522088585
18,5.77905883265859
2,1, 1, 1, 0, 7, 0.00,15.00,Tuesday
7,-10.6
8,0.0
9,0.0
10,0.0
11,0.0
12,0.0
13,0.0
14,5.181026792009923
15,-11.462560384011967
16,2.1694916213211856
17,-9.345380180157577
18,5.725048981637211
2,1, 1, 1, 0, 7,15.00,30.00,Tuesday
7,-10.6
8,0.0
9,0.0
10,0.0
11,0.0
12,0.0
13,0.0
14,5.1298915458573879
15,-11.441029856165342
16,2.1207200803505659
17,-9.373927234990163
18,5.671552110551516
2,1, 1, 1, 0, 7,30.00,45.00,Tuesday
7,-10.6
8,0.0
9,0.0
10,0.0
11,0.0
12,0.0
13,0.0
14,5.079062960578569
15,-11.42059612497759
16,2.0723698651786437
17,-9.401695619645807
18,5.618544499000199
2,1, 1, 1, 0, 7,45.00,60.00,Tuesday
7,-10.6
8,0.0
9,0.0
10,0.0
11,0.0
12,0.0
13,0.0
14,5.028543354667908
15,-11.40119412437718
16,2.0245060679622499
17,-9.428560652695865
18,5.565908860868951
2,1, 1, 1, 0, 8, 0.00,15.00,Tuesday
7,-10.45
8,0.0
9,0.0
10,0.0
11,0.0
12,0.0
13,0.0
14,4.977486128220665
15,-11.351609267807897
16,1.9990854233458322
17,-9.376873790371406
18,5.513295427870319
2,1, 1, 1, 0, 8,15.00,30.00,Tuesday
7,-10.3
8,173.10321145631117
9,1.0
10,22.819555959623899
11,1.0
12,22.819555959623899
13,173.10321145631117
14,5.049205673095811
15,-9.67783985355394
16,2.2869809579029836
17,-9.055284197594574
18,5.4795359312479399
2,1, 1, 1, 0, 8,30.00,45.00,Tuesday
7,-10.15
8,849.9385033316614
9,1.0
10,109.75755355442667
11,1.0
12,109.75755355442667
13,849.9385033316614
14,5.455917372793498
15,-3.3050021976474794
16,3.5285011782085577
17,-7.966997359969014
18,5.517257688669184
2,1, 1, 1, 0, 8,45.00,60.00,Tuesday
7,-10.0
8,1545.5219247059973
9,1.0
10,195.8764694434918
11,1.0
12,195.8764694434918
13,1545.5219247059973
14,5.967711955174169
15,3.1713323952667626
16,4.907701455928532
17,-6.872565586731014
18,5.634038603908698
2,1, 1, 1, 0, 9, 0.00,15.00,Tuesday
7,-9.725
8,2238.709489075825
9,1.0
10,278.97248314719988
11,1.0
12,278.97248314719988
13,2238.709489075825
14,6.414876635200797
15,8.352784192019448
16,6.350183850859594
17,-5.896966290089949
18,5.805863266341485
2,1, 1, 1, 0, 9,15.00,30.00,Tuesday
7,-9.45
8,2969.4086166752306
9,1.0
10,364.91995730569456
11,1.0
12,364.91995730569456
13,2969.4086166752306
14,6.867453710299664
15,13.427929995684203
16,7.748313305535191
17,-4.915961249272868
18,6.023835295431515
2,1, 1, 1, 0, 9,30.00,45.00,Tuesday
7,-9.175
8,3452.8363830973496
9,1.0
10,420.35879993239237
11,1.0
12,420.35879993239237
13,3452.8363830973496
14,7.191100178966202
15,16.185136022571564
16,8.69411566627599
17,-4.3101697485110439
18,6.267709016875273
2,1, 1, 1, 0, 9,45.00,60.00,Tuesday
7,-8.9
8,3954.6739069548109
9,1.0
10,478.00138373643099
11,1.0
12,478.00138373643099
13,3954.6739069548109
14,7.570098652081471
15,19.179484317490723
16,9.631997821985295
17,-3.683121240718094
18,6.526674827137732
2,1, 1, 1, 0,10, 0.00,15.00,Tuesday
7,-8.350000000000002
8,4467.113842203691
9,1.0
10,536.9185644770597
11,1.0
12,536.9185644770597
13,4467.113842203691
14,7.897320683683021
15,20.294709634965498
16,10.604240617358017
17,-3.0014451872139036
18,6.800709860490381
2,1, 1, 1, 0,10,15.00,30.00,Tuesday
7,-7.800000000000001
8,4997.25703813173
9,1.0
10,598.0969199229219
11,1.0
12,598.0969199229219
13,4997.25703813173
14,8.254518812084367
15,21.54596297323701
16,11.593287379210267
17,-2.320925945169904
18,7.0954396976361899
2,1, 1, 1, 0,10,30.00,45.00,Tuesday
7,-7.25
8,5345.03712769667
9,1.0
10,637.6133352894237
11,1.0
12,637.6133352894237
13,5345.03712769667
14,8.533920206957191
15,21.604032287838096
16,12.317783747305612
17,-1.8347451373364266
18,7.220000669258075
2,1, 1, 1, 0,10,45.00,60.00,Tuesday
7,-6.7
8,5687.69460126509
9,1.0
10,676.6412284283772
11,1.0
12,676.6412284283772
13,5687.69460126509
14,8.792265579468945
15,21.76168529659607
16,12.989196393194107
17,-1.354607172269084
18,7.465233010188678
2,1, 1, 1, 0,11, 0.00,15.00,Tuesday
7,-6.275
8,6024.1182617392619
9,1.0
10,715.0112779846514
11,1.0
12,715.0112779846514
13,6024.1182617392619
14,9.098524581622657
15,23.858582495245427
16,13.664917348832774
17,-0.6658627898072496
18,7.654623338481026
2,1, 1, 1, 0,11,15.00,30.00,Tuesday
7,-5.85
8,6352.622926754498
9,1.0
10,752.5077794605232
11,1.0
12,752.5077794605232
13,6352.622926754498
14,9.471979606944018
15,25.795400496587459
16,14.368818905304352
17,0.007641800878559479
18,8.097883271006081
2,1, 1, 1, 0,11,30.00,45.00,Tuesday
7,-5.425
8,6254.991861714689
9,1.0
10,742.5988714321785
11,1.0
12,742.5988714321785
13,6254.991861714689
14,9.759893874804379
15,25.649006742302015
16,14.58484254943005
17,0.31493247231281887
18,8.490256031653472
2,1, 1, 1, 0,11,45.00,60.00,Tuesday
7,-5.0
8,6115.488455937522
9,1.0
10,727.8169025450712
11,1.0
12,727.8169025450712
13,6115.488455937522
14,10.009779742658088
15,25.420046347833634
16,14.71546998178735
17,0.5930364394850471
18,8.823896403259809
2,1, 1, 1, 0,12, 0.00,15.00,Tuesday
7,-4.575
8,5875.584866177884
9,1.0
10,700.3759009170325
11,1.0
12,700.3759009170325
13,5875.584866177884
14,10.186909293954154
15,24.677963408624547
16,14.68448864672962
17,0.8172258534646062
18,9.105538347226182
2,1, 1, 1, 0,12,15.00,30.00,Tuesday
7,-4.15
8,5697.665319314475
9,1.0
10,681.6705029034473
11,1.0
12,681.6705029034473
13,5697.665319314475
14,10.349353945922852
15,24.347171900296446
16,14.703619961337495
17,1.1025130430371633
18,9.349382824170588
2,1, 1, 1, 0,12,30.00,45.00,Tuesday
7,-3.7249999999999998
8,5002.075619844998
9,1.0
10,602.01865277251
11,1.0
12,602.01865277251
13,5002.075619844998
14,10.293334866206719
15,21.31989463707279
16,14.024663519681042
17,0.9382408892060994
18,9.532957844225644
2,1, 1, 1, 0,12,45.00,60.00,Tuesday
7,-3.3
8,4085.257992218691
9,1.0
10,493.55004396206007
11,1.0
12,493.55004396206007
13,4085.257992218691
14,10.102922073022718
15,17.141814078489305
16,12.902299153853506
17,0.5360839069889494
18,9.629991568277854
2,1, 1, 1, 0,13, 0.00,15.00,Tuesday
7,-3.0249999999999996
8,3373.1820495361505
9,1.0
10,412.335026418112
11,1.0
12,412.335026418112
13,3373.1820495361505
14,9.971559037076354
15,14.298346187150614
16,11.995995581234979
17,0.2686506247088687
18,9.657857697493313
2,1, 1, 1, 0,13,15.00,30.00,Tuesday
7,-2.75
8,2470.545264965054
9,1.0
10,305.94037763660148
11,1.0
12,305.94037763660148
13,2470.545264965054
14,9.658426650355125
15,10.125632141689126
16,10.730101907721462
17,-0.21326329914086274
18,9.627107211381638
2,1, 1, 1, 0,13,30.00,45.00,Tuesday
7,-2.475
8,2255.52037291475
9,1.0
10,281.0763483922329
11,1.0
12,281.0763483922329
13,2255.52037291475
14,9.63007142598998
15,9.613507919227829
16,10.4139548490391
17,-0.07978487883553953
18,9.57851351091198
2,1, 1, 1, 0,13,45.00,60.00,Tuesday
7,-2.2
8,2044.9747465543583
9,1.0
10,256.7721209415886
11,1.0
12,256.7721209415886
13,2044.9747465543583
14,9.595259036521315
15,9.007347604043498
16,10.177485430099182
17,0.07814787738288942
18,9.536880568420548
2,1, 1, 1, 0,14, 0.00,15.00,Tuesday
7,-1.9250000000000003
8,1670.5363844904799
9,1.0
10,210.73276284570657
11,1.0
12,210.73276284570657
13,1670.5363844904799
14,9.446089772083809
15,7.460258870158328
16,9.617807926657008
17,0.0165116765118114
18,9.499479102475066
2,1, 1, 1, 0,14,15.00,30.00,Tuesday
7,-1.6500000000000002
8,1483.9755502209094
9,1.0
10,189.38488290342594
11,1.0
12,189.38488290342594
13,1483.9755502209094
14,9.4113002877633
15,7.057550974662794
16,9.339620207982876
17,0.15588025055933486
18,9.465996681642519
2,1, 1, 1, 0,14,30.00,45.00,Tuesday
7,-1.375
8,1415.2927051055099
9,1.0
10,179.3940297802914
11,1.0
12,179.3940297802914
13,1415.2927051055099
14,9.400709896905326
15,7.181004417141298
16,9.279913440944143
17,0.3964713017550707
18,9.437778551146185
2,1, 1, 1, 0,14,45.00,60.00,Tuesday
7,-1.1
8,1345.825196147699
9,1.0
10,169.43349014176136
11,1.0
12,169.43349014176136
13,1345.825196147699
14,9.386551175718408
15,7.280969935219625
16,9.212831104943291
17,0.6352625396727945
18,9.414288365915626
2,1, 1, 1, 0,15, 0.00,15.00,Tuesday
7,-1.1
8,1416.5654514198496
9,1.0
10,178.15692317953907
11,1.0
12,178.15692317953907
13,1416.5654514198496
14,9.449237389575059
15,8.099722961488608
16,9.346414443906042
17,0.7667294068398292
18,9.398805911863125
2,1, 1, 1, 0,15,15.00,30.00,Tuesday
7,-1.1
8,1330.8243374281975
9,1.0
10,166.40516310952945
11,1.0
12,166.40516310952945
13,1330.8243374281975
14,9.397507536673814
15,7.73740694477591
16,9.203733476650143
17,0.7160550120981384
18,9.386363737964363
2,1, 1, 1, 0,15,30.00,45.00,Tuesday
7,-1.1
8,1122.127169485654
9,1.0
10,140.8967369711617
11,1.0
12,140.8967369711617
13,1122.127169485654
14,9.27187218436738
15,6.528177516704705
16,8.81994231503461
17,0.5022081602319304
18,9.365678181451076
2,1, 1, 1, 0,15,45.00,60.00,Tuesday
7,-1.1
8,923.4192090985265
9,1.0
10,116.57355796743004
11,1.0
12,116.57355796743004
13,923.4192090985265
14,9.162967564900205
15,5.326548235393381
16,8.44166537058561
17,0.2910108473894297
18,9.325771642560789
2,1, 1, 1, 0,16, 0.00,15.00,Tuesday
7,-1.1
8,732.8781698368027
9,1.0
10,93.14939272689483
11,1.0
12,93.14939272689483
13,732.8781698368027
14,9.05417375865201
15,4.276576487937558
16,8.102625850476216
17,0.15609923204988264
18,9.265100959703592
2,1, 1, 1, 0,16,15.00,30.00,Tuesday
7,-1.1
8,454.9720957967563
9,1.0
10,57.94047897402063
11,1.0
12,57.94047897402063
13,454.9720957967563
14,8.854756063997531
15,2.155051542327245
16,7.588624903841378
17,-0.12174667771142822
18,9.176646696257248
2,1, 1, 1, 0,16,30.00,45.00,Tuesday
7,-1.1
8,352.751993514124
9,1.0
10,45.38251793443488
11,1.0
12,45.38251793443488
13,352.751993514124
14,8.773314028898307
15,1.547202683438643
16,7.358657190643839
17,-0.16601174143158915
18,9.076766899069164
2,1, 1, 1, 0,16,45.00,60.00,Tuesday
7,-1.1
8,246.24426140340877
9,1.0
10,32.02625108222755
11,1.0
12,32.02625108222755
13,246.24426140340877
14,8.653345609249259
15,0.687371027045441
16,7.144292370898654
17,-0.21313318315640118
18,8.97906131363998
2,1, 1, 1, 0,17, 0.00,15.00,Tuesday
7,-1.1
8,135.06463248996148
9,1.0
10,17.762198626050539
11,1.0
12,17.762198626050539
13,135.06463248996148
14,8.509374572885776
15,-0.559187399301643
16,6.877371753820171
17,-0.37275073011039697
18,8.882444313501903
2,1, 1, 1, 0,17,15.00,30.00,Tuesday
7,-1.1
8,0.0
9,0.0
10,0.0
11,0.0
12,0.0
13,0.0
14,8.316076121816833
15,-2.3942141304009447
16,6.540302542977656
17,-0.6436317941398215
18,8.77419927473317
2,1, 1, 1, 0,17,30.00,45.00,Tuesday
7,-1.1
8,0.0
9,0.0
10,0.0
11,0.0
12,0.0
13,0.0
14,8.256290105093394
15,-2.527963151342364
16,6.4485793156331969
17,-0.6311196379773492
18,8.668834422685754
2,1, 1, 1, 0,17,45.00,60.00,Tuesday
7,-1.1
8,0.0
9,0.0
10,0.0
11,0.0
12,0.0
13,0.0
14,8.180869889469575
15,-2.7150720411669218
16,6.399441418778963
17,-0.6032030976514875
18,8.580017761144524
2,1, 1, 1, 0,18, 0.00,15.00,Tuesday
7,-1.25
8,0.0
9,0.0
10,0.0
11,0.0
12,0.0
13,0.0
14,8.11695748690336
15,-2.863410788468158
16,6.30855755444486
17,-0.7460108291371626
18,8.508357345059713
2,1, 1, 1, 0,18,15.00,30.00,Tuesday
7,-1.4
8,0.0
9,0.0
10,0.0
11,0.0
12,0.0
13,0.0
14,8.058519033750088
15,-3.0158483064080436
16,6.231578197999511
17,-0.8791737379650044
18,8.44845516405612
2,1, 1, 1, 0,18,30.00,45.00,Tuesday
7,-1.5499999999999999
8,0.0
9,0.0
10,0.0
11,0.0
12,0.0
13,0.0
14,8.004334390069685
15,-3.167881300307847
16,6.159044592471787
17,-1.0116652143454986
18,8.394863673101712
2,1, 1, 1, 0,18,45.00,60.00,Tuesday
7,-1.7
8,0.0
9,0.0
10,0.0
11,0.0
12,0.0
13,0.0
14,7.9521482030828729
15,-3.32008147762726
16,6.089417398406965
17,-1.1434859982089166
18,8.344209758207115
2,1, 1, 1, 0,19, 0.00,15.00,Tuesday
7,-1.825
8,0.0
9,0.0
10,0.0
11,0.0
12,0.0
13,0.0
14,7.924175281920997
15,-3.1787449485341807
16,6.012674396293903
17,-1.3025021497263652
18,8.298349949540654
2,1, 1, 1, 0,19,15.00,30.00,Tuesday
7,-1.9500000000000002
8,0.0
9,0.0
10,0.0
11,0.0
12,0.0
13,0.0
14,7.894998666274216
15,-3.1180082164651026
16,5.948766752868096
17,-1.4522697623793875
18,8.259074425428639
2,1, 1, 1, 0,19,30.00,45.00,Tuesday
7,-2.075
8,0.0
9,0.0
10,0.0
11,0.0
12,0.0
13,0.0
14,7.861616082558723
15,-3.193447630543242
16,5.897734648246001
17,-1.5701834275915872
18,8.224963971558227
2,1, 1, 1, 0,19,45.00,60.00,Tuesday
7,-2.2
8,0.0
9,0.0
10,0.0
11,0.0
12,0.0
13,0.0
14,7.831050569919259
15,-3.176532306874108
16,5.838453863375605
17,-1.7138161079696488
18,8.192976305888488
2,1, 1, 1, 0,20, 0.00,15.00,Tuesday
7,-1.9250000000000003
8,0.0
9,0.0
10,0.0
11,0.0
12,0.0
13,0.0
14,7.816084335795008
15,-2.8766699180255759
16,5.870434409783456
17,-1.5051171826592054
18,8.163569998295627
2,1, 1, 1, 0,20,15.00,30.00,Tuesday
7,-1.6500000000000002
8,0.0
9,0.0
10,0.0
11,0.0
12,0.0
13,0.0
14,7.801539757200547
15,-2.579674175909021
16,5.90147310935788
17,-1.2853881741564806
18,8.13729332506743
2,1, 1, 1, 0,20,30.00,45.00,Tuesday
7,-1.375
8,0.0
9,0.0
10,0.0
11,0.0
12,0.0
13,0.0
14,7.788751277540454
15,-2.283904022814662
16,5.934085422202884
17,-1.0634662031096696
18,8.113793073477599
2,1, 1, 1, 0,20,45.00,60.00,Tuesday
7,-1.1
8,0.0
9,0.0
10,0.0
11,0.0
12,0.0
13,0.0
14,7.777509178020581
15,-1.9893440347744349
16,5.968672506556459
17,-0.8394579337607411
18,8.092395630902795
2,1, 1, 1, 0,21, 0.00,15.00,Tuesday
7,-1.25
8,0.0
9,0.0
10,0.0
11,0.0
12,0.0
13,0.0
14,7.72655716526382
15,-2.2650029263262705
16,5.927668309525188
17,-0.9195364202370229
18,8.066438364782938
2,1, 1, 1, 0,21,15.00,30.00,Tuesday
7,-1.4
8,0.0
9,0.0
10,0.0
11,0.0
12,0.0
13,0.0
14,7.676343512709165
15,-2.4786603037550969
16,5.872718206265517
17,-1.019568007948692
18,8.031344445616812
2,1, 1, 1, 0,21,30.00,45.00,Tuesday
7,-1.5499999999999999
8,0.0
9,0.0
10,0.0
11,0.0
12,0.0
13,0.0
14,7.613107812788163
15,-2.8157087850302329
16,5.822467229332688
17,-1.0920146929799444
18,7.986354014118758
2,1, 1, 1, 0,21,45.00,60.00,Tuesday
7,-1.7
8,0.0
9,0.0
10,0.0
11,0.0
12,0.0
13,0.0
14,7.544580107708674
15,-3.2592362700801176
16,5.772308093612423
17,-1.1358494517651253
18,7.933752449309243
2,1, 1, 1, 0,22, 0.00,15.00,Tuesday
7,-1.5499999999999999
8,0.0
9,0.0
10,0.0
11,0.0
12,0.0
13,0.0
14,7.542435220679872
15,-2.781544205166137
16,5.735758200386044
17,-1.105618884645537
18,7.886969317905239
2,1, 1, 1, 0,22,15.00,30.00,Tuesday
7,-1.4
8,0.0
9,0.0
10,0.0
11,0.0
12,0.0
13,0.0
14,7.529192315123184
15,-2.4580920994127077
16,5.733751901719529
17,-1.0390747229826616
18,7.853001821021796
2,1, 1, 1, 0,22,30.00,45.00,Tuesday
7,-1.25
8,0.0
9,0.0
10,0.0
11,0.0
12,0.0
13,0.0
14,7.5172196507511359
15,-2.2409393180599199
16,5.7405770609883579
17,-0.9424894656628453
18,7.829591874896489
2,1, 1, 1, 0,22,45.00,60.00,Tuesday
7,-1.1
8,0.0
9,0.0
10,0.0
11,0.0
12,0.0
13,0.0
14,7.507116808900064
15,-1.9638225880850482
16,5.746881816409314
17,-0.8539870330238841
18,7.811341798636879
2,1, 1, 1, 0,23, 0.00,15.00,Tuesday
7,-1.25
8,0.0
9,0.0
10,0.0
11,0.0
12,0.0
13,0.0
14,7.455672053745455
15,-2.2670507654136147
16,5.6589993054100209
17,-1.1343518904552639
18,7.787836946298479
2,1, 1, 1, 0,23,15.00,30.00,Tuesday
7,-1.4
8,0.0
9,0.0
10,0.0
11,0.0
12,0.0
13,0.0
14,7.4062923971803429
15,-2.571719486206602
16,5.558983187882575
17,-1.4304028046562963
18,7.754161508683539
2,1, 1, 1, 0,23,30.00,45.00,Tuesday
7,-1.5499999999999999
8,0.0
9,0.0
10,0.0
11,0.0
12,0.0
13,0.0
14,7.352180465672567
15,-2.8770249588493739
16,5.456886550561876
17,-1.7284482563986786
18,7.711609986989977
2,1, 1, 1, 0,23,45.00,60.00,Tuesday
7,-1.7
8,0.0
9,0.0
10,0.0
11,0.0
12,0.0
13,0.0
14,7.2941839599230839
15,-3.1826750720604917
16,5.350586491492095
17,-2.0286267809777884
18,7.663212110634287
2,1, 1, 1, 0,24, 0.00,15.00,Tuesday
7,-1.7
8,0.0
9,0.0
10,0.0
11,0.0
12,0.0
13,0.0
14,7.251925877813955
15,-3.2368434790482896
16,5.2979852966118419
17,-2.0926382260050788
18,7.614500725913411
2,1, 1, 1, 0,24,15.00,30.00,Tuesday
7,-1.7
8,0.0
9,0.0
10,0.0
11,0.0
12,0.0
13,0.0
14,7.207603850740516
15,-3.29158429381123
16,5.249635423820678
17,-2.155095617801635
18,7.568369649789517
2,1, 1, 1, 0,24,30.00,45.00,Tuesday
7,-1.7
8,0.0
9,0.0
10,0.0
11,0.0
12,0.0
13,0.0
14,7.164397070714928
15,-3.346218346661576
16,5.2011624257525
17,-2.2175308711011327
18,7.524740056587806
2,1, 1, 1, 0,24,45.00,60.00,Tuesday
7,-1.7
8,0.0
9,0.0
10,0.0
11,0.0
12,0.0
13,0.0
14,7.122012810559417
15,-3.400855849013434
16,5.153631028353061
17,-2.279667787289668
18,7.48257041475034
End of Data
 Number of Records Written=        1152
