Program Version,EnergyPlus, Version 9.5.0-de239b2e5f, YMD=2023.02.13 19:58
1,5,Environment Title[],Latitude[deg],Longitude[deg],Time Zone[],Elevation[m]
2,8,Day of Simulation[],Month[],Day of Month[],DST Indicator[1=yes 0=no],Hour[],StartMinute[],EndMinute[],DayType
3,5,Cumulative Day of Simulation[],Month[],Day of Month[],DST Indicator[1=yes 0=no],DayType  ! When Daily Report Variables Requested
4,2,Cumulative Days of Simulation[],Month[]  ! When Monthly Report Variables Requested
5,1,Cumulative Days of Simulation[] ! When Run Period Report Variables Requested
6,1,Calendar Year of Simulation[] ! When Annual Report Variables Requested
7,1,Environment,Site Outdoor Air Drybulb Temperature [C] !TimeStep
8,1,ZONE ONE,Zone Windows Total Transmitted Solar Radiation Rate [W] !TimeStep
9,1,ZN001:WALL001,Surface Outside Face Sunlit Fraction [] !TimeStep
10,1,ZN001:WALL001,Surface Outside Face Incident Solar Radiation Rate per Area [W/m2] !TimeStep
11,1,ZN001:WALL001:WIN001,Surface Outside Face Sunlit Fraction [] !TimeStep
12,1,ZN001:WALL001:WIN001,Surface Outside Face Incident Solar Radiation Rate per Area [W/m2] !TimeStep
13,1,ZN001:WALL001:WIN001,Surface Window Transmitted Solar Radiation Rate [W] !TimeStep
14,1,ZN001:WALL001,Surface Inside Face Temperature [C] !TimeStep
15,1,ZN001:WALL001,Surface Outside Face Temperature [C] !TimeStep
16,1,ZN001:WALL001:WIN001,Surface Inside Face Temperature [C] !TimeStep
17,1,ZN001:WALL001:WIN001,Surface Outside Face Temperature [C] !TimeStep
18,1,ZONE ONE,Zone Mean Air Temperature [C] !TimeStep
End of Data Dictionary
1,RUN PERIOD 1,  41.98, -87.92,  -6.00, 201.00
2,1, 1, 1, 0, 1, 0.00,15.00,Tuesday
7,-4.324999999999999
8,0.0
9,0.0
10,0.0
11,0.0
12,0.0
13,0.0
14,4.5798899906407659
15,-5.920524105794492
16,2.6595366049159567
17,-4.738201266405326
18,5.008989783485538
2,1, 1, 1, 0, 1,15.00,30.00,Tuesday
7,-6.949999999999999
8,0.0
9,0.0
10,0.0
11,0.0
12,0.0
13,0.0
14,4.401249839068578
15,-8.388113733470416
16,2.085832548661017
17,-6.852852259267877
18,4.916719579370943
2,1, 1, 1, 0, 1,30.00,45.00,Tuesday
7,-9.575
8,0.0
9,0.0
10,0.0
11,0.0
12,0.0
13,0.0
14,4.202955408891656
15,-10.863766596186082
16,1.5073945684798674
17,-8.974092365581783
18,4.7927733722473448
2,1, 1, 1, 0, 1,45.00,60.00,Tuesday
7,-12.2
8,0.0
9,0.0
10,0.0
11,0.0
12,0.0
13,0.0
14,3.989083504028821
15,-13.346013854746177
16,0.9144932267518016
17,-11.103132901172956
18,4.646586383246874
2,1, 1, 1, 0, 2, 0.00,15.00,Tuesday
7,-12.075
8,0.0
9,0.0
10,0.0
11,0.0
12,0.0
13,0.0
14,3.9258421023445688
15,-13.147172881439593
16,0.8427793254505787
17,-10.946461769922849
18,4.514480740931843
2,1, 1, 1, 0, 2,15.00,30.00,Tuesday
7,-11.95
8,0.0
9,0.0
10,0.0
11,0.0
12,0.0
13,0.0
14,3.8486314716264276
15,-12.970010992825918
16,0.8100977273952026
17,-10.796979240125836
18,4.4135545349861389
2,1, 1, 1, 0, 2,30.00,45.00,Tuesday
7,-11.825
8,0.0
9,0.0
10,0.0
11,0.0
12,0.0
13,0.0
14,3.7882339823345299
15,-12.791687938087703
16,0.782570757059375
17,-10.64720325975054
18,4.338914931477387
2,1, 1, 1, 0, 2,45.00,60.00,Tuesday
7,-11.7
8,0.0
9,0.0
10,0.0
11,0.0
12,0.0
13,0.0
14,3.738921178013017
15,-12.613437777958496
16,0.7676442661537521
17,-10.495025449099672
18,4.279900668029465
2,1, 1, 1, 0, 3, 0.00,15.00,Tuesday
7,-11.549999999999999
8,0.0
9,0.0
10,0.0
11,0.0
12,0.0
13,0.0
14,3.6912333323684227
15,-12.487731706562038
16,0.7614285679812838
17,-10.360540130403024
18,4.227712366591662
2,1, 1, 1, 0, 3,15.00,30.00,Tuesday
7,-11.399999999999999
8,0.0
9,0.0
10,0.0
11,0.0
12,0.0
13,0.0
14,3.6467198782042877
15,-12.363408558366875
16,0.7507897450493601
17,-10.207655105894674
18,4.177822826627876
2,1, 1, 1, 0, 3,30.00,45.00,Tuesday
7,-11.25
8,0.0
9,0.0
10,0.0
11,0.0
12,0.0
13,0.0
14,3.6031748089654247
15,-12.240631871003961
16,0.7482282083317386
17,-10.072352718410457
18,4.128960731218979
2,1, 1, 1, 0, 3,45.00,60.00,Tuesday
7,-11.1
8,0.0
9,0.0
10,0.0
11,0.0
12,0.0
13,0.0
14,3.5600916003967679
15,-12.119454231974507
16,0.7435948422685215
17,-9.928966985093325
18,4.080934337861157
2,1, 1, 1, 0, 4, 0.00,15.00,Tuesday
7,-11.1
8,0.0
9,0.0
10,0.0
11,0.0
12,0.0
13,0.0
14,3.5133748540042974
15,-12.09047192350369
16,0.6931019579221811
17,-9.94949677450694
18,4.032900491157744
2,1, 1, 1, 0, 4,15.00,30.00,Tuesday
7,-11.1
8,0.0
9,0.0
10,0.0
11,0.0
12,0.0
13,0.0
14,3.467074469871389
15,-12.062608511925414
16,0.6478486850687659
17,-9.977005886561244
18,3.9845325168601937
2,1, 1, 1, 0, 4,30.00,45.00,Tuesday
7,-11.1
8,0.0
9,0.0
10,0.0
11,0.0
12,0.0
13,0.0
14,3.4206270720381548
15,-12.036304209280815
16,0.6032704783034433
17,-10.004297198890186
18,3.9359283300784018
2,1, 1, 1, 0, 4,45.00,60.00,Tuesday
7,-11.1
8,0.0
9,0.0
10,0.0
11,0.0
12,0.0
13,0.0
14,3.374126066594973
15,-12.011427894423662
16,0.558881004048942
17,-10.030777109191718
18,3.8872710765714797
2,1, 1, 1, 0, 5, 0.00,15.00,Tuesday
7,-10.975
8,0.0
9,0.0
10,0.0
11,0.0
12,0.0
13,0.0
14,3.333230874242203
15,-11.88937335906699
16,0.5473249816402586
17,-9.941601008809528
18,3.8396732452153929
2,1, 1, 1, 0, 5,15.00,30.00,Tuesday
7,-10.85
8,0.0
9,0.0
10,0.0
11,0.0
12,0.0
13,0.0
14,3.292529613405184
15,-11.767398185840439
16,0.5340712403530006
17,-9.844512172618352
18,3.79359739002604
2,1, 1, 1, 0, 5,30.00,45.00,Tuesday
7,-10.725
8,0.0
9,0.0
10,0.0
11,0.0
12,0.0
13,0.0
14,3.2528046511467689
15,-11.64540179748481
16,0.5211228536364843
17,-9.746633817845464
18,3.7488393436858087
2,1, 1, 1, 0, 5,45.00,60.00,Tuesday
7,-10.6
8,0.0
9,0.0
10,0.0
11,0.0
12,0.0
13,0.0
14,3.2138989929942767
15,-11.52341522709756
16,0.5089521670215049
17,-9.648547711108848
18,3.7050464027868039
2,1, 1, 1, 0, 6, 0.00,15.00,Tuesday
7,-10.6
8,0.0
9,0.0
10,0.0
11,0.0
12,0.0
13,0.0
14,3.167958442984079
15,-11.524327010788367
16,0.4721397676767083
17,-9.651605371183564
18,3.6607620506873497
2,1, 1, 1, 0, 6,15.00,30.00,Tuesday
7,-10.6
8,0.0
9,0.0
10,0.0
11,0.0
12,0.0
13,0.0
14,3.12261489182159
15,-11.525172330078558
16,0.43118864816869975
17,-9.655322311645591
18,3.6151144915994055
2,1, 1, 1, 0, 6,30.00,45.00,Tuesday
7,-10.6
8,0.0
9,0.0
10,0.0
11,0.0
12,0.0
13,0.0
14,3.0767431338422219
15,-11.526063681126589
16,0.3925977545495698
17,-9.662238476635594
18,3.5683713633191069
2,1, 1, 1, 0, 6,45.00,60.00,Tuesday
7,-10.6
8,0.0
9,0.0
10,0.0
11,0.0
12,0.0
13,0.0
14,3.030525158146061
15,-11.526953263154685
16,0.35376229512064585
17,-9.669585423348622
18,3.52107512988344
2,1, 1, 1, 0, 7, 0.00,15.00,Tuesday
7,-10.6
8,0.0
9,0.0
10,0.0
11,0.0
12,0.0
13,0.0
14,2.9863568289972797
15,-11.503024628352835
16,0.31050894538452669
17,-9.69168788221009
18,3.4739414870975939
2,1, 1, 1, 0, 7,15.00,30.00,Tuesday
7,-10.6
8,0.0
9,0.0
10,0.0
11,0.0
12,0.0
13,0.0
14,2.9420596865789578
15,-11.48033566110598
16,0.26888832620619498
17,-9.71383166687309
18,3.4273298990432479
2,1, 1, 1, 0, 7,30.00,45.00,Tuesday
7,-10.6
8,0.0
9,0.0
10,0.0
11,0.0
12,0.0
13,0.0
14,2.898056309473518
15,-11.458799266671394
16,0.2276260640212513
17,-9.735342943538399
18,3.3812142156832647
2,1, 1, 1, 0, 7,45.00,60.00,Tuesday
7,-10.6
8,0.0
9,0.0
10,0.0
11,0.0
12,0.0
13,0.0
14,2.854351757619983
15,-11.438347446899068
16,0.18680394211060048
17,-9.756118485016487
18,3.3354686555047774
2,1, 1, 1, 0, 8, 0.00,15.00,Tuesday
7,-10.45
8,0.0
9,0.0
10,0.0
11,0.0
12,0.0
13,0.0
14,2.809926975852732
15,-11.389580950784208
16,0.16589287065107784
17,-9.708437153638329
18,3.289686917531055
2,1, 1, 1, 0, 8,15.00,30.00,Tuesday
7,-10.3
8,131.46049686357856
9,1.0
10,22.819555959623899
11,1.0
12,22.819555959623899
13,131.46049686357856
14,2.880803118786695
15,-9.716226098379915
16,0.48136247229109588
17,-9.376045334620642
18,3.2607263736752745
2,1, 1, 1, 0, 8,30.00,45.00,Tuesday
7,-10.15
8,645.4723572801172
9,1.0
10,109.75755355442667
11,1.0
12,109.75755355442667
13,645.4723572801172
14,3.2654367401765844
15,-3.3492766767371906
16,1.824266097429586
17,-8.22290716989869
18,3.295374587425646
2,1, 1, 1, 0, 8,45.00,60.00,Tuesday
7,-10.0
8,1173.722188202934
9,1.0
10,195.8764694434918
11,1.0
12,195.8764694434918
13,1173.722188202934
14,3.7564714877835749
15,3.1392105754266788
16,3.3487530892604129
17,-7.049887286040303
18,3.3998213928424145
2,1, 1, 1, 0, 9, 0.00,15.00,Tuesday
7,-9.725
8,1700.1525234071142
9,1.0
10,278.97248314719988
11,1.0
12,278.97248314719988
13,1700.1525234071142
14,4.148989104672694
15,8.313826167827795
16,4.8249347576964969
17,-6.004833183037533
18,3.5554224073621039
2,1, 1, 1, 0, 9,15.00,30.00,Tuesday
7,-9.45
8,2255.070422180567
9,1.0
10,364.91995730569456
11,1.0
12,364.91995730569456
13,2255.070422180567
14,4.566445624429449
15,13.392806677237294
16,6.271871209807955
17,-4.962920298777817
18,3.754185253792181
2,1, 1, 1, 0, 9,30.00,45.00,Tuesday
7,-9.175
8,2622.2019955184457
9,1.0
10,420.35879993239237
11,1.0
12,420.35879993239237
13,2622.2019955184457
14,4.85756417618389
15,16.150833168137237
16,7.248868851401312
17,-4.313814100467141
18,3.976684283897273
2,1, 1, 1, 0, 9,45.00,60.00,Tuesday
7,-8.9
8,3003.314568048804
9,1.0
10,478.00138373643099
11,1.0
12,478.00138373643099
13,3003.314568048804
14,5.1999144204114648
15,19.145752995043347
16,8.221658145042852
17,-3.642111693059519
18,4.212613245058936
2,1, 1, 1, 0,10, 0.00,15.00,Tuesday
7,-8.350000000000002
8,3392.478974266659
9,1.0
10,536.9185644770597
11,1.0
12,536.9185644770597
13,3392.478974266659
14,5.486905432363708
15,20.263331130551899
16,9.225469750534672
17,-2.9216192464313055
18,4.462168538420465
2,1, 1, 1, 0,10,15.00,30.00,Tuesday
7,-7.800000000000001
8,3795.087841886027
9,1.0
10,598.0969199229219
11,1.0
12,598.0969199229219
13,3795.087841886027
14,5.800992101742576
15,21.51632493464625
16,10.244827625221888
17,-2.2060401261468316
18,4.734807391304874
2,1, 1, 1, 0,10,30.00,45.00,Tuesday
7,-7.25
8,4059.203931869736
9,1.0
10,637.6133352894237
11,1.0
12,637.6133352894237
13,4059.203931869736
14,6.043062208944722
15,21.576100079555095
16,10.979815367481934
17,-1.7017702202605279
18,5.01673682773293
2,1, 1, 1, 0,10,45.00,60.00,Tuesday
7,-6.7
8,4319.429732132226
9,1.0
10,676.6412284283772
11,1.0
12,676.6412284283772
13,4319.429732132226
14,6.3075463501819579
15,21.73632422920271
16,11.688123757100243
17,-1.2018761373300322
18,5.296371036696899
2,1, 1, 1, 0,11, 0.00,15.00,Tuesday
7,-6.275
8,4574.921361607829
9,1.0
10,715.0112779846514
11,1.0
12,715.0112779846514
13,4574.921361607829
14,6.648399608972547
15,23.83411381061921
16,12.43007537750043
17,-0.48261030984582478
18,5.575626808343149
2,1, 1, 1, 0,11,15.00,30.00,Tuesday
7,-5.85
8,4824.399035195676
9,1.0
10,752.5077794605232
11,1.0
12,752.5077794605232
13,4824.399035195676
14,6.977979956699228
15,25.76927807444081
16,13.16489905257663
17,0.21587526016799075
18,5.858642887552324
2,1, 1, 1, 0,11,30.00,45.00,Tuesday
7,-5.425
8,4750.254666574636
9,1.0
10,742.5988714321785
11,1.0
12,742.5988714321785
13,4750.254666574636
14,7.172874604286069
15,25.621201579164376
16,13.30524078189967
17,0.5073093386039318
18,6.128060411468148
2,1, 1, 1, 0,11,45.00,60.00,Tuesday
7,-5.0
8,4644.311010858884
9,1.0
10,727.8169025450712
11,1.0
12,727.8169025450712
13,4644.311010858884
14,7.363167023998209
15,25.39217951110647
16,13.357429503830588
17,0.7671372414563393
18,6.3710455312459068
2,1, 1, 1, 0,12, 0.00,15.00,Tuesday
7,-4.575
8,4462.1200229276359
9,1.0
10,700.3759009170325
11,1.0
12,700.3759009170325
13,4462.1200229276359
14,7.495954990806079
15,24.649716024369878
16,13.25519960682243
17,0.9688192199175774
18,6.580474605295816
2,1, 1, 1, 0,12,15.00,30.00,Tuesday
7,-4.15
8,4327.00183629375
9,1.0
10,681.6705029034473
11,1.0
12,681.6705029034473
13,4327.00183629375
14,7.650918204510522
15,24.31942377368378
16,13.234190512115504
17,1.2372533401225497
18,6.763950630539732
2,1, 1, 1, 0,12,30.00,45.00,Tuesday
7,-3.7249999999999998
8,3798.7472375708705
9,1.0
10,602.01865277251
11,1.0
12,602.01865277251
13,3798.7472375708705
14,7.571365619042529
15,21.29114846246717
16,12.450470126395942
17,1.0176583498889614
18,6.90028002002981
2,1, 1, 1, 0,12,45.00,60.00,Tuesday
7,-3.3
8,3102.4845868256236
9,1.0
10,493.55004396206007
11,1.0
12,493.55004396206007
13,3102.4845868256236
14,7.381604359002423
15,17.112824913236456
16,11.210115867262573
17,0.5474005496143377
18,6.965776369065056
2,1, 1, 1, 0,13, 0.00,15.00,Tuesday
7,-3.0249999999999996
8,2561.7097713724044
9,1.0
10,412.335026418112
11,1.0
12,412.335026418112
13,2561.7097713724044
14,7.249004290449997
15,14.26868916651761
16,10.216662649413252
17,0.2229876504193271
18,6.97451467207927
2,1, 1, 1, 0,13,15.00,30.00,Tuesday
7,-2.75
8,1876.216537660609
9,1.0
10,305.94037763660148
11,1.0
12,305.94037763660148
13,1876.216537660609
14,6.955071820420413
15,10.09553425182901
16,8.852077822827483
17,-0.3276413414725994
18,6.935551040323283
2,1, 1, 1, 0,13,30.00,45.00,Tuesday
7,-2.475
8,1712.9192833280932
9,1.0
10,281.0763483922329
11,1.0
12,281.0763483922329
13,1712.9192833280932
14,6.930773863285572
15,9.58227277826412
16,8.521213676144555
17,-0.21260228737475019
18,6.8837863281014759
2,1, 1, 1, 0,13,45.00,60.00,Tuesday
7,-2.2
8,1553.0237364984283
9,1.0
10,256.7721209415886
11,1.0
12,256.7721209415886
13,1553.0237364984283
14,6.898314987443541
15,8.976148020619128
16,8.261419093399752
17,-0.07336736795298293
18,6.8392632202485299
2,1, 1, 1, 0,14, 0.00,15.00,Tuesday
7,-1.9250000000000003
8,1268.6624429811005
9,1.0
10,210.73276284570657
11,1.0
12,210.73276284570657
13,1268.6624429811005
14,6.768441669826932
15,7.428321947104393
16,7.679135134557953
17,-0.16215305955859095
18,6.798875539500631
2,1, 1, 1, 0,14,15.00,30.00,Tuesday
7,-1.6500000000000002
8,1126.9817672614705
9,1.0
10,189.38488290342594
11,1.0
12,189.38488290342594
13,1126.9817672614705
14,6.737495259810993
15,7.02369791479317
16,7.401833281246525
17,-0.04262589047726806
18,6.763236756998223
2,1, 1, 1, 0,14,30.00,45.00,Tuesday
7,-1.375
8,1074.8216665395078
9,1.0
10,179.3940297802914
11,1.0
12,179.3940297802914
13,1074.8216665395078
14,6.732858253477135
15,7.146160932203816
16,7.336774279597762
17,0.1887406738055688
18,6.733805763471305
2,1, 1, 1, 0,14,45.00,60.00,Tuesday
7,-1.1
8,1022.0656652694047
9,1.0
10,169.43349014176136
11,1.0
12,169.43349014176136
13,1022.0656652694047
14,6.725551345209118
15,7.244708139416476
16,7.266267648636074
17,0.4183318287119846
18,6.710395200183486
2,1, 1, 1, 0,15, 0.00,15.00,Tuesday
7,-1.1
8,1075.788233603826
9,1.0
10,178.15692317953907
11,1.0
12,178.15692317953907
13,1075.788233603826
14,6.784429518996456
15,8.06293747312379
16,7.403383005272076
17,0.5496470537913183
18,6.6959659445759
2,1, 1, 1, 0,15,15.00,30.00,Tuesday
7,-1.1
8,1010.6735003059926
9,1.0
10,166.40516310952945
11,1.0
12,166.40516310952945
13,1010.6735003059926
14,6.737773502221516
15,7.698909833218494
16,7.252274400651913
17,0.48732055062174597
18,6.6853599184039409
2,1, 1, 1, 0,15,30.00,45.00,Tuesday
7,-1.1
8,852.1817359938502
9,1.0
10,140.8967369711617
11,1.0
12,140.8967369711617
13,852.1817359938502
14,6.628050566161946
15,6.491800998638751
16,6.838043961895892
17,0.2532086991743654
18,6.667494011229801
2,1, 1, 1, 0,15,45.00,60.00,Tuesday
7,-1.1
8,701.2761174120806
9,1.0
10,116.57355796743004
11,1.0
12,116.57355796743004
13,701.2761174120806
14,6.517344346151238
15,5.282884267732158
16,6.402927611188659
17,0.004897207684393834
18,6.634106200785781
2,1, 1, 1, 0,16, 0.00,15.00,Tuesday
7,-1.1
8,556.5727379451323
9,1.0
10,93.14939272689483
11,1.0
12,93.14939272689483
13,556.5727379451323
14,6.421542719747588
15,4.231827935552095
16,6.022552427126016
17,-0.16677464205241677
18,6.583779895628294
2,1, 1, 1, 0,16,15.00,30.00,Tuesday
7,-1.1
8,345.5213642160369
9,1.0
10,57.94047897402063
11,1.0
12,57.94047897402063
13,345.5213642160369
14,6.239241939869747
15,2.106292603004922
16,5.461735627275516
17,-0.49543994843486419
18,6.510018665318106
2,1, 1, 1, 0,16,30.00,45.00,Tuesday
7,-1.1
8,267.8919238232606
9,1.0
10,45.38251793443488
11,1.0
12,45.38251793443488
13,267.8919238232606
14,6.168642162127559
15,1.494188818948347
16,5.221512615227084
17,-0.5685468450591316
18,6.42224894928461
2,1, 1, 1, 0,16,45.00,60.00,Tuesday
7,-1.1
8,187.0063107528397
9,1.0
10,32.02625108222755
11,1.0
12,32.02625108222755
13,187.0063107528397
14,6.061734055808596
15,0.6291038412184978
16,4.9924036743846049
17,-0.6520945765645365
18,6.331784875768042
2,1, 1, 1, 0,17, 0.00,15.00,Tuesday
7,-1.1
8,102.57269952681935
9,1.0
10,17.762198626050539
11,1.0
12,17.762198626050539
13,102.57269952681935
14,5.926457268124153
15,-0.624679763654299
16,4.709366690247634
17,-0.8546674192527917
18,6.240287604307867
2,1, 1, 1, 0,17,15.00,30.00,Tuesday
7,-1.1
8,0.0
9,0.0
10,0.0
11,0.0
12,0.0
13,0.0
14,5.74326065907569
15,-2.4629664386541134
16,4.3569394157964329
17,-1.1478688314876422
18,6.138101270771443
2,1, 1, 1, 0,17,30.00,45.00,Tuesday
7,-1.1
8,0.0
9,0.0
10,0.0
11,0.0
12,0.0
13,0.0
14,5.689303912944619
15,-2.599935865948641
16,4.263034333004498
17,-1.1787613116564444
18,6.039027829442387
2,1, 1, 1, 0,17,45.00,60.00,Tuesday
7,-1.1
8,0.0
9,0.0
10,0.0
11,0.0
12,0.0
13,0.0
14,5.620691670805077
15,-2.7928197599254069
16,4.2092434526825859
17,-1.2009029250669983
18,5.955785332639548
2,1, 1, 1, 0,18, 0.00,15.00,Tuesday
7,-1.25
8,0.0
9,0.0
10,0.0
11,0.0
12,0.0
13,0.0
14,5.563588415682629
15,-2.9404015836982015
16,4.121436713875767
17,-1.3418989703131957
18,5.889344047873209
2,1, 1, 1, 0,18,15.00,30.00,Tuesday
7,-1.4
8,0.0
9,0.0
10,0.0
11,0.0
12,0.0
13,0.0
14,5.51169384466029
15,-3.092793459578211
16,4.0507764595568009
17,-1.4707353223705582
18,5.834888459634866
2,1, 1, 1, 0,18,30.00,45.00,Tuesday
7,-1.5499999999999999
8,0.0
9,0.0
10,0.0
11,0.0
12,0.0
13,0.0
14,5.464061850313786
15,-3.2446841792404679
16,3.984459550059114
17,-1.598489204565169
18,5.7872518155675689
2,1, 1, 1, 0,18,45.00,60.00,Tuesday
7,-1.7
8,0.0
9,0.0
10,0.0
11,0.0
12,0.0
13,0.0
14,5.418564531447506
15,-3.396742453202576
16,3.920950503961194
17,-1.7259755022895434
18,5.743042236402309
2,1, 1, 1, 0,19, 0.00,15.00,Tuesday
7,-1.825
8,0.0
9,0.0
10,0.0
11,0.0
12,0.0
13,0.0
14,5.398739017615151
15,-3.2464869858783289
16,3.866891197610073
17,-1.8224208754036795
18,5.704147811707163
2,1, 1, 1, 0,19,15.00,30.00,Tuesday
7,-1.9500000000000002
8,0.0
9,0.0
10,0.0
11,0.0
12,0.0
13,0.0
14,5.377990379995549
15,-3.1779085112769858
16,3.8191703191455987
17,-1.925973699267331
18,5.672281484585149
2,1, 1, 1, 0,19,30.00,45.00,Tuesday
7,-2.075
8,0.0
9,0.0
10,0.0
11,0.0
12,0.0
13,0.0
14,5.352556686572038
15,-3.2512029841580656
16,3.7760290300756766
17,-2.030385658036437
18,5.64586373780765
2,1, 1, 1, 0,19,45.00,60.00,Tuesday
7,-2.2
8,0.0
9,0.0
10,0.0
11,0.0
12,0.0
13,0.0
14,5.330205776418821
15,-3.2274177905619596
16,3.7318712355096297
17,-2.1382723952598328
18,5.621850537397279
2,1, 1, 1, 0,20, 0.00,15.00,Tuesday
7,-1.9250000000000003
8,0.0
9,0.0
10,0.0
11,0.0
12,0.0
13,0.0
14,5.324440848956994
15,-2.9258495307337188
16,3.772022453177442
17,-1.9225577263579226
18,5.600548778043223
2,1, 1, 1, 0,20,15.00,30.00,Tuesday
7,-1.6500000000000002
8,0.0
9,0.0
10,0.0
11,0.0
12,0.0
13,0.0
14,5.318325826112009
15,-2.627346901368025
16,3.8133524573017327
17,-1.6937146988562973
18,5.58236919735189
2,1, 1, 1, 0,20,30.00,45.00,Tuesday
7,-1.375
8,0.0
9,0.0
10,0.0
11,0.0
12,0.0
13,0.0
14,5.313900462102925
15,-2.330109920253179
16,3.8560419253481088
17,-1.4626739757578662
18,5.566908187564335
2,1, 1, 1, 0,20,45.00,60.00,Tuesday
7,-1.1
8,0.0
9,0.0
10,0.0
11,0.0
12,0.0
13,0.0
14,5.310969649571274
15,-2.0341568671580507
16,3.9006299496829799
17,-1.22973366396144
18,5.553507754459522
2,1, 1, 1, 0,21, 0.00,15.00,Tuesday
7,-1.25
8,0.0
9,0.0
10,0.0
11,0.0
12,0.0
13,0.0
14,5.265539370897323
15,-2.3168244592801305
16,3.855583579064728
17,-1.3442822157765023
18,5.53549075709674
2,1, 1, 1, 0,21,15.00,30.00,Tuesday
7,-1.4
8,0.0
9,0.0
10,0.0
11,0.0
12,0.0
13,0.0
14,5.221498602970837
15,-2.534186537484778
16,3.8017986197596089
17,-1.4632998499534438
18,5.508227173698261
2,1, 1, 1, 0,21,30.00,45.00,Tuesday
7,-1.5499999999999999
8,0.0
9,0.0
10,0.0
11,0.0
12,0.0
13,0.0
14,5.163815329587167
15,-2.880556351453379
16,3.7452635062701349
17,-1.5828475058450522
18,5.470730019409037
2,1, 1, 1, 0,21,45.00,60.00,Tuesday
7,-1.7
8,0.0
9,0.0
10,0.0
11,0.0
12,0.0
13,0.0
14,5.100730110770092
15,-3.3348090929628095
16,3.680640241556034
17,-1.7004878591793614
18,5.42508703576404
2,1, 1, 1, 0,22, 0.00,15.00,Tuesday
7,-1.5499999999999999
8,0.0
9,0.0
10,0.0
11,0.0
12,0.0
13,0.0
14,5.107990135911289
15,-2.8445073575118684
16,3.6709050982733517
17,-1.6011184213772368
18,5.385106286024337
2,1, 1, 1, 0,22,15.00,30.00,Tuesday
7,-1.4
8,0.0
9,0.0
10,0.0
11,0.0
12,0.0
13,0.0
14,5.104122530753254
15,-2.512519518735554
16,3.688635066781046
17,-1.4830960642689207
18,5.358150944221018
2,1, 1, 1, 0,22,30.00,45.00,Tuesday
7,-1.25
8,0.0
9,0.0
10,0.0
11,0.0
12,0.0
13,0.0
14,5.099576378495429
15,-2.291544880758645
16,3.7071653116593099
17,-1.3639466734661028
18,5.341970950369091
2,1, 1, 1, 0,22,45.00,60.00,Tuesday
7,-1.1
8,0.0
9,0.0
10,0.0
11,0.0
12,0.0
13,0.0
14,5.099011324536929
15,-2.007518032527477
16,3.730386830956604
17,-1.236493939522461
18,5.331390285651839
2,1, 1, 1, 0,23, 0.00,15.00,Tuesday
7,-1.25
8,0.0
9,0.0
10,0.0
11,0.0
12,0.0
13,0.0
14,5.053345972521604
15,-2.3109303833857899
16,3.6460819921530858
17,-1.514927159564536
18,5.316002328386725
2,1, 1, 1, 0,23,15.00,30.00,Tuesday
7,-1.4
8,0.0
9,0.0
10,0.0
11,0.0
12,0.0
13,0.0
14,5.0104599474357009
15,-2.6155037730381465
16,3.5500311331920786
17,-1.8103388178830642
18,5.290573556658768
2,1, 1, 1, 0,23,30.00,45.00,Tuesday
7,-1.5499999999999999
8,0.0
9,0.0
10,0.0
11,0.0
12,0.0
13,0.0
14,4.963076363243655
15,-2.920732652771002
16,3.452815747379759
17,-2.105564079723422
18,5.256093787086167
2,1, 1, 1, 0,23,45.00,60.00,Tuesday
7,-1.7
8,0.0
9,0.0
10,0.0
11,0.0
12,0.0
13,0.0
14,4.911852489506335
15,-3.2263042178675844
16,3.3519330140921399
17,-2.4012231897003177
18,5.215460990251809
2,1, 1, 1, 0,24, 0.00,15.00,Tuesday
7,-1.7
8,0.0
9,0.0
10,0.0
11,0.0
12,0.0
13,0.0
14,4.8778495542460009
15,-3.2802750545502445
16,3.3055845421133656
17,-2.4629219787865397
18,5.174254495877884
2,1, 1, 1, 0,24,15.00,30.00,Tuesday
7,-1.7
8,0.0
9,0.0
10,0.0
11,0.0
12,0.0
13,0.0
14,4.83975729120317
15,-3.3349309183194419
16,3.2636987337968437
17,-2.5235742341511697
18,5.135324703574348
2,1, 1, 1, 0,24,30.00,45.00,Tuesday
7,-1.7
8,0.0
9,0.0
10,0.0
11,0.0
12,0.0
13,0.0
14,4.804663475092492
15,-3.389402303048536
16,3.22099920697525
17,-2.584428337647523
18,5.0988230640843679
2,1, 1, 1, 0,24,45.00,60.00,Tuesday
7,-1.7
8,0.0
9,0.0
10,0.0
11,0.0
12,0.0
13,0.0
14,4.769222300519285
15,-3.4439592617589604
16,3.179747200337715
17,-2.6448912253974869
18,5.063821202721327
End of Data
 Number of Records Written=        1152
