Program Version,EnergyPlus, Version 9.5.0-de239b2e5f, YMD=2022.11.02 10:56
1,5,Environment Title[],Latitude[deg],Longitude[deg],Time Zone[],Elevation[m]
2,8,Day of Simulation[],Month[],Day of Month[],DST Indicator[1=yes 0=no],Hour[],StartMinute[],EndMinute[],DayType
3,5,Cumulative Day of Simulation[],Month[],Day of Month[],DST Indicator[1=yes 0=no],DayType  ! When Daily Report Variables Requested
4,2,Cumulative Days of Simulation[],Month[]  ! When Monthly Report Variables Requested
5,1,Cumulative Days of Simulation[] ! When Run Period Report Variables Requested
6,1,Calendar Year of Simulation[] ! When Annual Report Variables Requested
7,1,Environment,Site Outdoor Air Drybulb Temperature [C] !TimeStep
8,1,ZONE ONE,Zone Windows Total Transmitted Solar Radiation Rate [W] !TimeStep
9,1,ZN001:WALL001,Surface Outside Face Sunlit Fraction [] !TimeStep
10,1,ZN001:WALL001,Surface Outside Face Incident Solar Radiation Rate per Area [W/m2] !TimeStep
11,1,ZN001:WALL001:WIN001,Surface Outside Face Sunlit Fraction [] !TimeStep
12,1,ZN001:WALL001:WIN001,Surface Outside Face Incident Solar Radiation Rate per Area [W/m2] !TimeStep
13,1,ZN001:WALL001:WIN001,Surface Window Transmitted Solar Radiation Rate [W] !TimeStep
14,1,ZN001:WALL001,Surface Inside Face Temperature [C] !TimeStep
15,1,ZN001:WALL001,Surface Outside Face Temperature [C] !TimeStep
16,1,ZN001:WALL001:WIN001,Surface Inside Face Temperature [C] !TimeStep
17,1,ZN001:WALL001:WIN001,Surface Outside Face Temperature [C] !TimeStep
18,1,ZONE ONE,Zone Mean Air Temperature [C] !TimeStep
End of Data Dictionary
1,RUN PERIOD 1,  41.98, -87.92,  -6.00, 201.00
2,1, 1, 1, 0, 1, 0.00,15.00,Tuesday
7,-4.324999999999999
8,0.0
9,0.0
10,0.0
11,0.0
12,0.0
13,0.0
14,-1.3125418365533932
15,-6.0285243262359728
16,-2.3208605592379856
17,-5.609059490647155
18,-1.0433104702218006
2,1, 1, 1, 0, 1,15.00,30.00,Tuesday
7,-6.949999999999999
8,0.0
9,0.0
10,0.0
11,0.0
12,0.0
13,0.0
14,-1.4818987472397312
15,-8.496235692584055
16,-2.9523448310989695
17,-7.696721344026514
18,-1.1173366451205645
2,1, 1, 1, 0, 1,30.00,45.00,Tuesday
7,-9.575
8,0.0
9,0.0
10,0.0
11,0.0
12,0.0
13,0.0
14,-1.6735995030483318
15,-10.973248046337089
16,-3.580523847561153
17,-9.79092619332647
18,-1.225777221887191
2,1, 1, 1, 0, 1,45.00,60.00,Tuesday
7,-12.2
8,0.0
9,0.0
10,0.0
11,0.0
12,0.0
13,0.0
14,-1.8795003478373356
15,-13.456639181853103
16,-4.221354799328424
17,-11.894073348687585
18,-1.359790513343356
2,1, 1, 1, 0, 2, 0.00,15.00,Tuesday
7,-12.075
8,0.0
9,0.0
10,0.0
11,0.0
12,0.0
13,0.0
14,-1.924590709012345
15,-13.258737950213785
16,-4.27764175189003
17,-11.756905243919391
18,-1.4819370993524528
2,1, 1, 1, 0, 2,15.00,30.00,Tuesday
7,-11.95
8,0.0
9,0.0
10,0.0
11,0.0
12,0.0
13,0.0
14,-1.9864106704142187
15,-13.081294097714907
16,-4.2903631207607308
17,-11.60660915740965
18,-1.5731765070112116
2,1, 1, 1, 0, 2,30.00,45.00,Tuesday
7,-11.825
8,0.0
9,0.0
10,0.0
11,0.0
12,0.0
13,0.0
14,-2.031511821239501
15,-12.902578076784174
16,-4.299097823235968
17,-11.45590015174605
18,-1.6367700718612326
2,1, 1, 1, 0, 2,45.00,60.00,Tuesday
7,-11.7
8,0.0
9,0.0
10,0.0
11,0.0
12,0.0
13,0.0
14,-2.0650437541708315
15,-12.72390858245205
16,-4.291525906024162
17,-11.312271825180915
18,-1.6827330501069194
2,1, 1, 1, 0, 3, 0.00,15.00,Tuesday
7,-11.549999999999999
8,0.0
9,0.0
10,0.0
11,0.0
12,0.0
13,0.0
14,-2.096968184023813
15,-12.600851843196912
16,-4.286442639779352
17,-11.180854015166858
18,-1.7202279819743909
2,1, 1, 1, 0, 3,15.00,30.00,Tuesday
7,-11.399999999999999
8,0.0
9,0.0
10,0.0
11,0.0
12,0.0
13,0.0
14,-2.1241084878724987
15,-12.479288120285096
16,-4.278986662484499
17,-11.050480713693844
18,-1.7541866566436606
2,1, 1, 1, 0, 3,30.00,45.00,Tuesday
7,-11.25
8,0.0
9,0.0
10,0.0
11,0.0
12,0.0
13,0.0
14,-2.15099615195975
15,-12.359441467568678
16,-4.26915116927529
17,-10.92036647649013
18,-1.786484529728327
2,1, 1, 1, 0, 3,45.00,60.00,Tuesday
7,-11.1
8,0.0
9,0.0
10,0.0
11,0.0
12,0.0
13,0.0
14,-2.1771246241277248
15,-12.241297645474412
16,-4.258829577478878
17,-10.790952553631258
18,-1.8176876012480603
2,1, 1, 1, 0, 4, 0.00,15.00,Tuesday
7,-11.1
8,0.0
9,0.0
10,0.0
11,0.0
12,0.0
13,0.0
14,-2.206535173245622
15,-12.208517401049133
16,-4.288036968741324
17,-10.796632092126629
18,-1.8485570779365779
2,1, 1, 1, 0, 4,15.00,30.00,Tuesday
7,-11.1
8,0.0
9,0.0
10,0.0
11,0.0
12,0.0
13,0.0
14,-2.235606524512219
15,-12.177007181013725
16,-4.3151839543928649
17,-10.805932858436279
18,-1.879513967038712
2,1, 1, 1, 0, 4,30.00,45.00,Tuesday
7,-11.1
8,0.0
9,0.0
10,0.0
11,0.0
12,0.0
13,0.0
14,-2.264736336976762
15,-12.14723147315135
16,-4.341521119424328
17,-10.816080330825458
18,-1.9106007384085813
2,1, 1, 1, 0, 4,45.00,60.00,Tuesday
7,-11.1
8,0.0
9,0.0
10,0.0
11,0.0
12,0.0
13,0.0
14,-2.2939193388917524
15,-12.119056058245265
16,-4.36756610746653
17,-10.826257555946768
18,-1.941726281864689
2,1, 1, 1, 0, 5, 0.00,15.00,Tuesday
7,-10.975
8,0.0
9,0.0
10,0.0
11,0.0
12,0.0
13,0.0
14,-2.31746406141268
15,-11.996573693304969
16,-4.362525505440317
17,-10.735555815466
18,-1.9719691549589438
2,1, 1, 1, 0, 5,15.00,30.00,Tuesday
7,-10.85
8,0.0
9,0.0
10,0.0
11,0.0
12,0.0
13,0.0
14,-2.3407514457253657
15,-11.874211075039387
16,-4.357518351152919
17,-10.637432063276038
18,-2.0008226855272559
2,1, 1, 1, 0, 5,30.00,45.00,Tuesday
7,-10.725
8,0.0
9,0.0
10,0.0
11,0.0
12,0.0
13,0.0
14,-2.36319808612944
15,-11.751833519882178
16,-4.352233175997867
17,-10.53856467734414
18,-2.028395010671876
2,1, 1, 1, 0, 5,45.00,60.00,Tuesday
7,-10.6
8,0.0
9,0.0
10,0.0
11,0.0
12,0.0
13,0.0
14,-2.384877764594293
15,-11.629464747177682
16,-4.346264023983167
17,-10.439497677687257
18,-2.054991893505138
2,1, 1, 1, 0, 6, 0.00,15.00,Tuesday
7,-10.6
8,0.0
9,0.0
10,0.0
11,0.0
12,0.0
13,0.0
14,-2.4140568141558957
15,-11.630115952853176
16,-4.368629501523856
17,-10.43912794105745
18,-2.0820563814168997
2,1, 1, 1, 0, 6,15.00,30.00,Tuesday
7,-10.6
8,0.0
9,0.0
10,0.0
11,0.0
12,0.0
13,0.0
14,-2.442816762670676
15,-11.630652972602883
16,-4.3924593285946689
17,-10.442756443361305
18,-2.1103999605435397
2,1, 1, 1, 0, 6,30.00,45.00,Tuesday
7,-10.6
8,0.0
9,0.0
10,0.0
11,0.0
12,0.0
13,0.0
14,-2.4720515577619777
15,-11.631226519763754
16,-4.416179913372503
17,-10.447370370156591
18,-2.1398921015389367
2,1, 1, 1, 0, 6,45.00,60.00,Tuesday
7,-10.6
8,0.0
9,0.0
10,0.0
11,0.0
12,0.0
13,0.0
14,-2.501665287018386
15,-11.631803014001675
16,-4.440171392874674
17,-10.45238569479966
18,-2.1700829189842936
2,1, 1, 1, 0, 7, 0.00,15.00,Tuesday
7,-10.6
8,0.0
9,0.0
10,0.0
11,0.0
12,0.0
13,0.0
14,-2.528987400130258
15,-11.604815145292874
16,-4.465239240419123
17,-10.45940374950419
18,-2.2002254661389899
2,1, 1, 1, 0, 7,15.00,30.00,Tuesday
7,-10.6
8,0.0
9,0.0
10,0.0
11,0.0
12,0.0
13,0.0
14,-2.556476199981402
15,-11.579226044289403
16,-4.489175742289319
17,-10.466377411838096
18,-2.2299073473455279
2,1, 1, 1, 0, 7,30.00,45.00,Tuesday
7,-10.6
8,0.0
9,0.0
10,0.0
11,0.0
12,0.0
13,0.0
14,-2.583756949245722
15,-11.554930721335304
16,-4.512844042351219
17,-10.473262252043299
18,-2.2591188840114064
2,1, 1, 1, 0, 7,45.00,60.00,Tuesday
7,-10.6
8,0.0
9,0.0
10,0.0
11,0.0
12,0.0
13,0.0
14,-2.6107845158766698
15,-11.531850380652413
16,-4.536213653225673
17,-10.47992379760558
18,-2.2879770500554805
2,1, 1, 1, 0, 8, 0.00,15.00,Tuesday
7,-10.45
8,0.0
9,0.0
10,0.0
11,0.0
12,0.0
13,0.0
14,-2.6389390145484019
15,-11.485136800046478
16,-4.543546702325841
17,-10.451730516904263
18,-2.3169911004767904
2,1, 1, 1, 0, 8,15.00,30.00,Tuesday
7,-10.3
8,31.154557072600015
9,1.0
10,22.819555959623899
11,1.0
12,22.819555959623899
13,31.154557072600015
14,-2.571444330306144
15,-9.8127845495357
16,-4.1607092092422139
17,-10.08339582444205
18,-2.334250839609456
2,1, 1, 1, 0, 8,30.00,45.00,Tuesday
7,-10.15
8,153.83523297055354
9,1.0
10,109.75755355442667
11,1.0
12,109.75755355442667
13,153.83523297055354
14,-2.24145899044036
15,-3.4620820411603527
16,-2.5546502536402615
17,-8.766125956026201
18,-2.307852509342049
2,1, 1, 1, 0, 8,45.00,60.00,Tuesday
7,-10.0
8,282.0771970278173
9,1.0
10,195.8764694434918
11,1.0
12,195.8764694434918
13,282.0771970278173
14,-1.847472836343118
15,3.0320656925180158
16,-0.8656991397484717
17,-7.463989411319972
18,-2.2317701944373948
2,1, 1, 1, 0, 9, 0.00,15.00,Tuesday
7,-9.725
8,412.13466881802858
9,1.0
10,278.97248314719988
11,1.0
12,278.97248314719988
13,412.13466881802858
14,-1.5499672397907185
15,8.221568269869689
16,0.6328548800375984
17,-6.311345502163476
18,-2.1133043469359986
2,1, 1, 1, 0, 9,15.00,30.00,Tuesday
7,-9.45
8,551.3806511306236
9,1.0
10,364.91995730569456
11,1.0
12,364.91995730569456
13,551.3806511306236
14,-1.2250253285938398
15,13.303488174771129
16,2.1328779603920795
17,-5.163581029839634
18,-1.9598576416139575
2,1, 1, 1, 0, 9,30.00,45.00,Tuesday
7,-9.175
8,646.2071263676775
9,1.0
10,420.35879993239237
11,1.0
12,420.35879993239237
13,646.2071263676775
14,-1.0144291889706108
15,16.064690591399225
16,3.126732979970825
17,-4.452157903335092
18,-1.788198575698554
2,1, 1, 1, 0, 9,45.00,60.00,Tuesday
7,-8.9
8,745.30505861185
9,1.0
10,478.00138373643099
11,1.0
12,478.00138373643099
13,745.30505861185
14,-0.7626408081971713
15,19.06091151860753
16,4.12708866845918
17,-3.7134076817571897
18,-1.6040196270553183
2,1, 1, 1, 0,10, 0.00,15.00,Tuesday
7,-8.350000000000002
8,847.0548615257089
9,1.0
10,536.9185644770597
11,1.0
12,536.9185644770597
13,847.0548615257089
14,-0.5743523452951193
15,20.18449147992675
16,5.159935865866544
17,-2.925020942219305
18,-1.4068425425385583
2,1, 1, 1, 0,10,15.00,30.00,Tuesday
7,-7.800000000000001
8,952.6009341930247
9,1.0
10,598.0969199229219
11,1.0
12,598.0969199229219
13,952.6009341930247
14,-0.36532540259649146
15,21.441928076510885
16,6.210247194912142
17,-2.1442751066279017
18,-1.2005380347612649
2,1, 1, 1, 0,10,30.00,45.00,Tuesday
7,-7.25
8,1023.5226414947458
9,1.0
10,637.6133352894237
11,1.0
12,637.6133352894237
13,1023.5226414947458
14,-0.22022993020507146
15,21.50569455919815
16,6.940564896384956
17,-1.6031867584163707
18,-0.9977049400547143
2,1, 1, 1, 0,10,45.00,60.00,Tuesday
7,-6.7
8,1093.389212839994
9,1.0
10,676.6412284283772
11,1.0
12,676.6412284283772
13,1093.389212839994
14,-0.06316998752578129
15,21.669107060409539
16,7.646250779481875
17,-1.0693762829503158
18,-0.8049823102311905
2,1, 1, 1, 0,11, 0.00,15.00,Tuesday
7,-6.275
8,1161.9323893155577
9,1.0
10,715.0112779846514
11,1.0
12,715.0112779846514
13,1161.9323893155577
14,0.1719710840844631
15,23.765957934394675
16,8.384186003720288
17,-0.31363053717518599
18,-0.6182281603097124
2,1, 1, 1, 0,11,15.00,30.00,Tuesday
7,-5.85
8,1228.7757964757857
9,1.0
10,752.5077794605232
11,1.0
12,752.5077794605232
13,1228.7757964757857
14,0.3905042755931891
15,25.7004648706739
16,9.108653994030988
17,0.4186199359327816
18,-0.43279205312422266
2,1, 1, 1, 0,11,30.00,45.00,Tuesday
7,-5.425
8,1210.8505877825356
9,1.0
10,742.5988714321785
11,1.0
12,742.5988714321785
13,1210.8505877825356
14,0.5013998376218548
15,25.55209216354515
16,9.164322756712523
17,0.6910656132728263
18,-0.2615626841831493
2,1, 1, 1, 0,11,45.00,60.00,Tuesday
7,-5.0
8,1184.18659673994
9,1.0
10,727.8169025450712
11,1.0
12,727.8169025450712
13,1184.18659673994
14,0.6098211250454974
15,25.322029109263153
16,9.130746469186875
17,0.9261769625430816
18,-0.11285383234186747
2,1, 1, 1, 0,12, 0.00,15.00,Tuesday
7,-4.575
8,1138.054147249921
9,1.0
10,700.3759009170325
11,1.0
12,700.3759009170325
13,1138.054147249921
14,0.6764549013007966
15,24.578757898036764
16,8.927296653339625
17,1.0887345426457387
18,0.0098860799928544
2,1, 1, 1, 0,12,15.00,30.00,Tuesday
7,-4.15
8,1102.544188832873
9,1.0
10,681.6705029034473
11,1.0
12,681.6705029034473
13,1102.544188832873
14,0.7585383723285576
15,24.247590005127348
16,8.824171898658335
17,1.3259160077719799
18,0.11233695448280164
2,1, 1, 1, 0,12,30.00,45.00,Tuesday
7,-3.7249999999999998
8,965.7415425008679
9,1.0
10,602.01865277251
11,1.0
12,602.01865277251
13,965.7415425008679
14,0.6664498722679427
15,21.219022928408039
16,7.867745193130872
17,1.0103975734492679
18,0.18099740129710019
2,1, 1, 1, 0,12,45.00,60.00,Tuesday
7,-3.3
8,787.4428646782425
9,1.0
10,493.55004396206007
11,1.0
12,493.55004396206007
13,787.4428646782425
14,0.4997082862696159
15,17.03983262879015
16,6.448236395541699
17,0.41777030275892459
18,0.2026466567708678
2,1, 1, 1, 0,13, 0.00,15.00,Tuesday
7,-3.0249999999999996
8,646.6598619199549
9,1.0
10,412.335026418112
11,1.0
12,412.335026418112
13,646.6598619199549
14,0.3910670605802221
15,14.194234941555674
16,5.339200159467964
17,-0.002878123668438093
18,0.18366639789569379
2,1, 1, 1, 0,13,15.00,30.00,Tuesday
7,-2.75
8,470.6765918912172
9,1.0
10,305.94037763660148
11,1.0
12,305.94037763660148
13,470.6765918912172
14,0.17891323751048314
15,10.0203000417746
16,3.8303794144817404
17,-0.6782633396942401
18,0.12879850553307618
2,1, 1, 1, 0,13,30.00,45.00,Tuesday
7,-2.475
8,428.2703052140848
9,1.0
10,281.0763483922329
11,1.0
12,281.0763483922329
13,428.2703052140848
14,0.16108798544362597
15,9.506288542838544
16,3.50360744234888
17,-0.5969178939192261
18,0.06873482799508048
2,1, 1, 1, 0,13,45.00,60.00,Tuesday
7,-2.2
8,386.7401066295795
9,1.0
10,256.7721209415886
11,1.0
12,256.7721209415886
13,386.7401066295795
14,0.13375973354655544
15,8.898361761340459
16,3.208432158497658
17,-0.49553748478899709
18,0.02174422400930032
2,1, 1, 1, 0,14, 0.00,15.00,Tuesday
7,-1.9250000000000003
8,315.0556468746862
9,1.0
10,210.73276284570657
11,1.0
12,210.73276284570657
13,315.0556468746862
14,0.053750884078446619
15,7.348924144426904
16,2.5671990044288579
17,-0.6458020641855455
18,-0.01669524095476116
2,1, 1, 1, 0,14,15.00,30.00,Tuesday
7,-1.6500000000000002
8,278.2788949493837
9,1.0
10,189.38488290342594
11,1.0
12,189.38488290342594
13,278.2788949493837
14,0.037221973783278888
15,6.940778705837694
16,2.2895360570544769
17,-0.5725575327752495
18,-0.04775812810211535
2,1, 1, 1, 0,14,30.00,45.00,Tuesday
7,-1.375
8,265.8972739621221
9,1.0
10,179.3940297802914
11,1.0
12,179.3940297802914
13,265.8972739621221
14,0.04613609794418144
15,7.0587841200812699
16,2.215242301874582
17,-0.3717698953331592
18,-0.07031299242633044
2,1, 1, 1, 0,14,45.00,60.00,Tuesday
7,-1.1
8,253.17453215962645
9,1.0
10,169.43349014176136
11,1.0
12,169.43349014176136
13,253.17453215962645
14,0.052964265806903807
15,7.15454535559212
16,2.1405259014954938
17,-0.17326733261040773
18,-0.08523588118566432
2,1, 1, 1, 0,15, 0.00,15.00,Tuesday
7,-1.1
8,266.1340198700932
9,1.0
10,178.15692317953907
11,1.0
12,178.15692317953907
13,266.1340198700932
14,0.09486743098964577
15,7.9670013431864679
16,2.2881767266622434
17,-0.045937159314462409
18,-0.09112528976668977
2,1, 1, 1, 0,15,15.00,30.00,Tuesday
7,-1.1
8,249.9359141927583
9,1.0
10,166.40516310952945
11,1.0
12,166.40516310952945
13,249.9359141927583
14,0.06850798891961377
15,7.602910122000766
16,2.113752298748068
17,-0.14150240304775253
18,-0.09341182979827859
2,1, 1, 1, 0,15,30.00,45.00,Tuesday
7,-1.1
8,209.950642551986
9,1.0
10,140.8967369711617
11,1.0
12,140.8967369711617
13,209.950642551986
14,-0.004519587393161986
15,6.394000369602049
16,1.6918789052717785
17,-0.4321993972350242
18,-0.10217230477172133
2,1, 1, 1, 0,15,45.00,60.00,Tuesday
7,-1.1
8,172.05522830249874
9,1.0
10,116.57355796743004
11,1.0
12,116.57355796743004
13,172.05522830249874
14,-0.08026491356300417
15,5.180943604952049
16,1.266589185770158
17,-0.7221130025145612
18,-0.12358962229266264
2,1, 1, 1, 0,16, 0.00,15.00,Tuesday
7,-1.1
8,135.9529281669195
9,1.0
10,93.14939272689483
11,1.0
12,93.14939272689483
13,135.9529281669195
14,-0.15443479365453748
15,4.118747113584441
16,0.8637418196560702
17,-0.9649645647523357
18,-0.1567946398909456
2,1, 1, 1, 0,16,15.00,30.00,Tuesday
7,-1.1
8,84.02696930276508
9,1.0
10,57.94047897402063
11,1.0
12,57.94047897402063
13,84.02696930276508
14,-0.3088215630753187
15,1.9718956692499359
16,0.22334553662676627
17,-1.4041295599504338
18,-0.2034987203475661
2,1, 1, 1, 0,16,30.00,45.00,Tuesday
7,-1.1
8,64.83124821518905
9,1.0
10,45.38251793443488
11,1.0
12,45.38251793443488
13,64.83124821518905
14,-0.34998921584286565
15,1.3619706289684939
16,-0.04034162366372129
17,-1.5589915441869949
18,-0.2568172372051065
2,1, 1, 1, 0,16,45.00,60.00,Tuesday
7,-1.1
8,45.06351933370178
9,1.0
10,32.02625108222755
11,1.0
12,32.02625108222755
13,45.06351933370178
14,-0.4274292903386216
15,0.48239777154656846
16,-0.322593067146272
17,-1.7372676816029867
18,-0.31138617335923166
2,1, 1, 1, 0,17, 0.00,15.00,Tuesday
7,-1.1
8,24.644545816942619
9,1.0
10,17.762198626050539
11,1.0
12,17.762198626050539
13,24.644545816942619
14,-0.5330594765242769
15,-0.7892030169809207
16,-0.6607497046283015
17,-2.038923437038193
18,-0.3695757512575326
2,1, 1, 1, 0,17,15.00,30.00,Tuesday
7,-1.1
8,0.0
9,0.0
10,0.0
11,0.0
12,0.0
13,0.0
14,-0.6844645678974008
15,-2.634545124585851
16,-1.0436970904489727
17,-2.350345270489356
18,-0.44097486160137908
2,1, 1, 1, 0,17,30.00,45.00,Tuesday
7,-1.1
8,0.0
9,0.0
10,0.0
11,0.0
12,0.0
13,0.0
14,-0.7171832665638188
15,-2.778315779531395
16,-1.1289947683882816
17,-2.437435086300411
18,-0.5165520525109116
2,1, 1, 1, 0,17,45.00,60.00,Tuesday
7,-1.1
8,0.0
9,0.0
10,0.0
11,0.0
12,0.0
13,0.0
14,-0.7666215122102458
15,-2.9852717637624499
16,-1.1843707131886845
17,-2.529218964063375
18,-0.5864191539791567
2,1, 1, 1, 0,18, 0.00,15.00,Tuesday
7,-1.25
8,0.0
9,0.0
10,0.0
11,0.0
12,0.0
13,0.0
14,-0.8053529099765608
15,-3.131080145454906
16,-1.2557084786523092
17,-2.6684209160725347
18,-0.6454180422681854
2,1, 1, 1, 0,18,15.00,30.00,Tuesday
7,-1.4
8,0.0
9,0.0
10,0.0
11,0.0
12,0.0
13,0.0
14,-0.8426916197901633
15,-3.2836130673163219
16,-1.3160097161681393
17,-2.7927812242014626
18,-0.6931871316746699
2,1, 1, 1, 0,18,30.00,45.00,Tuesday
7,-1.5499999999999999
8,0.0
9,0.0
10,0.0
11,0.0
12,0.0
13,0.0
14,-0.876257184687721
15,-3.4352189977126956
16,-1.3760930378582544
17,-2.9228969457342375
18,-0.7322228874122942
2,1, 1, 1, 0,18,45.00,60.00,Tuesday
7,-1.7
8,0.0
9,0.0
10,0.0
11,0.0
12,0.0
13,0.0
14,-0.9072254461753061
15,-3.5869732998821219
16,-1.4331709457379134
17,-3.0520755763399736
18,-0.7653823994150358
2,1, 1, 1, 0,19, 0.00,15.00,Tuesday
7,-1.825
8,0.0
9,0.0
10,0.0
11,0.0
12,0.0
13,0.0
14,-0.9078833057262934
15,-3.4149856007467509
16,-1.4447078648767616
17,-3.044181991809978
18,-0.7910139658851263
2,1, 1, 1, 0,19,15.00,30.00,Tuesday
7,-1.9500000000000002
8,0.0
9,0.0
10,0.0
11,0.0
12,0.0
13,0.0
14,-0.9085494458554387
15,-3.3272753799600558
16,-1.4554423906523653
17,-3.0479646620120777
18,-0.8079652569097641
2,1, 1, 1, 0,19,30.00,45.00,Tuesday
7,-2.075
8,0.0
9,0.0
10,0.0
11,0.0
12,0.0
13,0.0
14,-0.9141910222209622
15,-3.395373996699485
16,-1.4827334858927089
17,-3.122835269224879
18,-0.8181681430849351
2,1, 1, 1, 0,19,45.00,60.00,Tuesday
7,-2.2
8,0.0
9,0.0
10,0.0
11,0.0
12,0.0
13,0.0
14,-0.9162758731509426
15,-3.3545320364743307
16,-1.4926442729242809
17,-3.1447497229355578
18,-0.8245632849831246
2,1, 1, 1, 0,20, 0.00,15.00,Tuesday
7,-1.9250000000000003
8,0.0
9,0.0
10,0.0
11,0.0
12,0.0
13,0.0
14,-0.9039073687574194
15,-3.048560921516922
16,-1.4186815053740248
17,-2.903160864082224
18,-0.827790428451406
2,1, 1, 1, 0,20,15.00,30.00,Tuesday
7,-1.6500000000000002
8,0.0
9,0.0
10,0.0
11,0.0
12,0.0
13,0.0
14,-0.888784216824482
15,-2.746010618396829
16,-1.3464948408395117
17,-2.6537983987415147
18,-0.8278939561891054
2,1, 1, 1, 0,20,30.00,45.00,Tuesday
7,-1.375
8,0.0
9,0.0
10,0.0
11,0.0
12,0.0
13,0.0
14,-0.8706953688685107
15,-2.4450482469006244
16,-1.2720622042659216
17,-2.403094336747813
18,-0.8251297561534323
2,1, 1, 1, 0,20,45.00,60.00,Tuesday
7,-1.1
8,0.0
9,0.0
10,0.0
11,0.0
12,0.0
13,0.0
14,-0.8519486823874647
15,-2.1455876193087506
16,-1.1952025510522049
17,-2.15121874818135
18,-0.8200695604847563
2,1, 1, 1, 0,21, 0.00,15.00,Tuesday
7,-1.25
8,0.0
9,0.0
10,0.0
11,0.0
12,0.0
13,0.0
14,-0.8825356929837939
15,-2.446621429944848
16,-1.256812155964667
17,-2.358196247542139
18,-0.8180765546094556
2,1, 1, 1, 0,21,15.00,30.00,Tuesday
7,-1.4
8,0.0
9,0.0
10,0.0
11,0.0
12,0.0
13,0.0
14,-0.9156353764823393
15,-2.673180166581078
16,-1.317328693943466
17,-2.5131308550261908
18,-0.8242435437135482
2,1, 1, 1, 0,21,30.00,45.00,Tuesday
7,-1.5499999999999999
8,0.0
9,0.0
10,0.0
11,0.0
12,0.0
13,0.0
14,-0.9615121454102635
15,-3.0424782461280746
16,-1.3965579666538588
17,-2.7469661565820617
18,-0.8409641075149408
2,1, 1, 1, 0,21,45.00,60.00,Tuesday
7,-1.7
8,0.0
9,0.0
10,0.0
11,0.0
12,0.0
13,0.0
14,-1.0119629243547735
15,-3.522608797894608
16,-1.492869828185178
17,-3.0038460796754409
18,-0.8674466625593634
2,1, 1, 1, 0,22, 0.00,15.00,Tuesday
7,-1.5499999999999999
8,0.0
9,0.0
10,0.0
11,0.0
12,0.0
13,0.0
14,-0.9810579727958694
15,-3.001082847797386
16,-1.4364276437258355
17,-2.7372734913197975
18,-0.890186952113388
2,1, 1, 1, 0,22,15.00,30.00,Tuesday
7,-1.4
8,0.0
9,0.0
10,0.0
11,0.0
12,0.0
13,0.0
14,-0.9588312363302909
15,-2.6480127801691215
16,-1.3675420091542492
17,-2.513222746271822
18,-0.901032644050169
2,1, 1, 1, 0,22,30.00,45.00,Tuesday
7,-1.25
8,0.0
9,0.0
10,0.0
11,0.0
12,0.0
13,0.0
14,-0.9411674054195764
15,-2.417568536700165
16,-1.3105962223821735
17,-2.354430691974585
18,-0.9011885821933019
2,1, 1, 1, 0,22,45.00,60.00,Tuesday
7,-1.1
8,0.0
9,0.0
10,0.0
11,0.0
12,0.0
13,0.0
14,-0.9189159737032795
15,-2.1162338652636687
16,-1.2431307721333838
17,-2.1311225085383969
18,-0.8950278709671663
2,1, 1, 1, 0,23, 0.00,15.00,Tuesday
7,-1.25
8,0.0
9,0.0
10,0.0
11,0.0
12,0.0
13,0.0
14,-0.9492706450286582
15,-2.4209845676605639
16,-1.3246943912253074
17,-2.4109162256399374
18,-0.8909620977736772
2,1, 1, 1, 0,23,15.00,30.00,Tuesday
7,-1.4
8,0.0
9,0.0
10,0.0
11,0.0
12,0.0
13,0.0
14,-0.9796770040497325
15,-2.7253868075248697
16,-1.4190522985969665
17,-2.699439253886453
18,-0.8948774127617569
2,1, 1, 1, 0,23,30.00,45.00,Tuesday
7,-1.5499999999999999
8,0.0
9,0.0
10,0.0
11,0.0
12,0.0
13,0.0
14,-1.0119696959005063
15,-3.0303083997627415
16,-1.5140999090085643
17,-2.9879327971987097
18,-0.9075589334649061
2,1, 1, 1, 0,23,45.00,60.00,Tuesday
7,-1.7
8,0.0
9,0.0
10,0.0
11,0.0
12,0.0
13,0.0
14,-1.0471626737574927
15,-3.3356439529862604
16,-1.6111395946660423
17,-3.2767383999832875
18,-0.9273032422516209
2,1, 1, 1, 0,24, 0.00,15.00,Tuesday
7,-1.7
8,0.0
9,0.0
10,0.0
11,0.0
12,0.0
13,0.0
14,-1.0630528591392546
15,-3.3889895177917728
16,-1.6431077848708356
17,-3.3331341594958987
18,-0.9492452356112774
2,1, 1, 1, 0,24,15.00,30.00,Tuesday
7,-1.7
8,0.0
9,0.0
10,0.0
11,0.0
12,0.0
13,0.0
14,-1.083044202289178
15,-3.4433414771583936
16,-1.6710309981380647
17,-3.389601302711867
18,-0.970242456844071
2,1, 1, 1, 0,24,30.00,45.00,Tuesday
7,-1.7
8,0.0
9,0.0
10,0.0
11,0.0
12,0.0
13,0.0
14,-1.1017244904930504
15,-3.4975129554684036
16,-1.7001119453680645
17,-3.4464803212260337
18,-0.9895993984862045
2,1, 1, 1, 0,24,45.00,60.00,Tuesday
7,-1.7
8,0.0
9,0.0
10,0.0
11,0.0
12,0.0
13,0.0
14,-1.1200981348859432
15,-3.5517342122378108
16,-1.7285381365188642
17,-3.5031484930336775
18,-1.0077189108306466
End of Data
 Number of Records Written=        1152
