Program Version,EnergyPlus, Version 9.5.0-de239b2e5f, YMD=2023.02.13 19:58
1,5,Environment Title[],Latitude[deg],Longitude[deg],Time Zone[],Elevation[m]
2,8,Day of Simulation[],Month[],Day of Month[],DST Indicator[1=yes 0=no],Hour[],StartMinute[],EndMinute[],DayType
3,5,Cumulative Day of Simulation[],Month[],Day of Month[],DST Indicator[1=yes 0=no],DayType  ! When Daily Report Variables Requested
4,2,Cumulative Days of Simulation[],Month[]  ! When Monthly Report Variables Requested
5,1,Cumulative Days of Simulation[] ! When Run Period Report Variables Requested
6,1,Calendar Year of Simulation[] ! When Annual Report Variables Requested
7,1,Environment,Site Outdoor Air Drybulb Temperature [C] !TimeStep
8,1,ZONE ONE,Zone Windows Total Transmitted Solar Radiation Rate [W] !TimeStep
9,1,ZN001:WALL001,Surface Outside Face Sunlit Fraction [] !TimeStep
10,1,ZN001:WALL001,Surface Outside Face Incident Solar Radiation Rate per Area [W/m2] !TimeStep
11,1,ZN001:WALL001:WIN001,Surface Outside Face Sunlit Fraction [] !TimeStep
12,1,ZN001:WALL001:WIN001,Surface Outside Face Incident Solar Radiation Rate per Area [W/m2] !TimeStep
13,1,ZN001:WALL001:WIN001,Surface Window Transmitted Solar Radiation Rate [W] !TimeStep
14,1,ZN001:WALL001,Surface Inside Face Temperature [C] !TimeStep
15,1,ZN001:WALL001,Surface Outside Face Temperature [C] !TimeStep
16,1,ZN001:WALL001:WIN001,Surface Inside Face Temperature [C] !TimeStep
17,1,ZN001:WALL001:WIN001,Surface Outside Face Temperature [C] !TimeStep
18,1,ZONE ONE,Zone Mean Air Temperature [C] !TimeStep
End of Data Dictionary
1,RUN PERIOD 1,  41.98, -87.92,  -6.00, 201.00
2,1, 1, 1, 0, 1, 0.00,15.00,Tuesday
7,-4.324999999999999
8,0.0
9,0.0
10,0.0
11,0.0
12,0.0
13,0.0
14,5.438496245609876
15,-5.904937228252794
16,1.8905479497865372
17,-3.4715471406616418
18,5.866400785106736
2,1, 1, 1, 0, 1,15.00,30.00,Tuesday
7,-6.949999999999999
8,0.0
9,0.0
10,0.0
11,0.0
12,0.0
13,0.0
14,5.248880620804122
15,-8.372565887411959
16,1.0361371927068604
17,-5.369521262306989
18,5.7579218506006459
2,1, 1, 1, 0, 1,30.00,45.00,Tuesday
7,-9.575
8,0.0
9,0.0
10,0.0
11,0.0
12,0.0
13,0.0
14,5.036695083441415
15,-10.848337610493939
16,0.17539954739959286
17,-7.273567355561397
18,5.6137274982218499
2,1, 1, 1, 0, 1,45.00,60.00,Tuesday
7,-12.2
8,0.0
9,0.0
10,0.0
11,0.0
12,0.0
13,0.0
14,4.805788961510177
15,-13.330739031740914
16,-0.7000219546746962
17,-9.18625436857468
18,5.444898870505914
2,1, 1, 1, 0, 2, 0.00,15.00,Tuesday
7,-12.075
8,0.0
9,0.0
10,0.0
11,0.0
12,0.0
13,0.0
14,4.730189864740496
15,-13.131955963898525
16,-0.7308813252275854
17,-9.053590366919309
18,5.294353613211955
2,1, 1, 1, 0, 2,15.00,30.00,Tuesday
7,-11.95
8,0.0
9,0.0
10,0.0
11,0.0
12,0.0
13,0.0
14,4.640435682980609
15,-12.955043324905449
16,-0.7401074322466457
17,-8.945194444718709
18,5.180566408607944
2,1, 1, 1, 0, 2,30.00,45.00,Tuesday
7,-11.825
8,0.0
9,0.0
10,0.0
11,0.0
12,0.0
13,0.0
14,4.570223397610974
15,-12.776835847377419
16,-0.7462401266352572
17,-8.826833191594915
18,5.096688366215927
2,1, 1, 1, 0, 2,45.00,60.00,Tuesday
7,-11.7
8,0.0
9,0.0
10,0.0
11,0.0
12,0.0
13,0.0
14,4.512477204801413
15,-12.598718636430258
16,-0.7402746538350584
17,-8.70276652206121
18,5.02993780596527
2,1, 1, 1, 0, 3, 0.00,15.00,Tuesday
7,-11.549999999999999
8,0.0
9,0.0
10,0.0
11,0.0
12,0.0
13,0.0
14,4.457044013887195
15,-12.472753727734425
16,-0.7188406737354285
17,-8.560032908152209
18,4.970475020487272
2,1, 1, 1, 0, 3,15.00,30.00,Tuesday
7,-11.399999999999999
8,0.0
9,0.0
10,0.0
11,0.0
12,0.0
13,0.0
14,4.405071382834062
15,-12.348165250564885
16,-0.6959093566355818
17,-8.416201436831955
18,4.913572416370969
2,1, 1, 1, 0, 3,30.00,45.00,Tuesday
7,-11.25
8,0.0
9,0.0
10,0.0
11,0.0
12,0.0
13,0.0
14,4.3541407808672
15,-12.225107737964655
16,-0.6713971732738173
17,-8.272017078946476
18,4.85786600769364
2,1, 1, 1, 0, 3,45.00,60.00,Tuesday
7,-11.1
8,0.0
9,0.0
10,0.0
11,0.0
12,0.0
13,0.0
14,4.303861538682751
15,-12.103636183516486
16,-0.6462727160147779
17,-8.128007795920212
18,4.803171994729532
2,1, 1, 1, 0, 4, 0.00,15.00,Tuesday
7,-11.1
8,0.0
9,0.0
10,0.0
11,0.0
12,0.0
13,0.0
14,4.249375623118231
15,-12.07525490325572
16,-0.7142087170076366
17,-8.176122316199667
18,4.747932167146682
2,1, 1, 1, 0, 4,15.00,30.00,Tuesday
7,-11.1
8,0.0
9,0.0
10,0.0
11,0.0
12,0.0
13,0.0
14,4.195210552537278
15,-12.047984701341776
16,-0.7729761959728876
17,-8.230879737329645
18,4.691641215056843
2,1, 1, 1, 0, 4,30.00,45.00,Tuesday
7,-11.1
8,0.0
9,0.0
10,0.0
11,0.0
12,0.0
13,0.0
14,4.140610110054017
15,-12.022250809878094
16,-0.8303546712096477
17,-8.28569538520793
18,4.634618333980252
2,1, 1, 1, 0, 4,45.00,60.00,Tuesday
7,-11.1
8,0.0
9,0.0
10,0.0
11,0.0
12,0.0
13,0.0
14,4.085777937318757
15,-11.99791581986339
16,-0.8873185994578421
17,-8.33952420413027
18,4.57730823678799
2,1, 1, 1, 0, 5, 0.00,15.00,Tuesday
7,-10.975
8,0.0
9,0.0
10,0.0
11,0.0
12,0.0
13,0.0
14,4.036894115352156
15,-11.876028553801892
16,-0.8830097319330434
17,-8.268314473602857
18,4.521410948757199
2,1, 1, 1, 0, 5,15.00,30.00,Tuesday
7,-10.85
8,0.0
9,0.0
10,0.0
11,0.0
12,0.0
13,0.0
14,3.98834252361246
15,-11.754204908220002
16,-0.8822377203597398
17,-8.189549936175581
18,4.4675543663841019
2,1, 1, 1, 0, 5,30.00,45.00,Tuesday
7,-10.725
8,0.0
9,0.0
10,0.0
11,0.0
12,0.0
13,0.0
14,3.9410353207937014
15,-11.632353043919606
16,-0.8814235873879852
17,-8.109580344360893
18,4.415407612817804
2,1, 1, 1, 0, 5,45.00,60.00,Tuesday
7,-10.6
8,0.0
9,0.0
10,0.0
11,0.0
12,0.0
13,0.0
14,3.894750090905545
15,-11.510509305413857
16,-0.8798005013765646
17,-8.029162264180969
18,4.364455868135806
2,1, 1, 1, 0, 6, 0.00,15.00,Tuesday
7,-10.6
8,0.0
9,0.0
10,0.0
11,0.0
12,0.0
13,0.0
14,3.841317113793681
15,-11.511558300643257
16,-0.9206473277666873
17,-8.036308453284505
18,4.312816379986944
2,1, 1, 1, 0, 6,15.00,30.00,Tuesday
7,-10.6
8,0.0
9,0.0
10,0.0
11,0.0
12,0.0
13,0.0
14,3.7885320628150747
15,-11.512548991653592
16,-0.9596374307914743
17,-8.049053658420974
18,4.2596933615528729
2,1, 1, 1, 0, 6,30.00,45.00,Tuesday
7,-10.6
8,0.0
9,0.0
10,0.0
11,0.0
12,0.0
13,0.0
14,3.7351653305002654
15,-11.513583952009326
16,-0.9982927619457769
17,-8.062490822270548
18,4.205421079496595
2,1, 1, 1, 0, 6,45.00,60.00,Tuesday
7,-10.6
8,0.0
9,0.0
10,0.0
11,0.0
12,0.0
13,0.0
14,3.6814663627438515
15,-11.514616308013482
16,-1.03726356385107
17,-8.07616846950009
18,4.150590081948976
2,1, 1, 1, 0, 7, 0.00,15.00,Tuesday
7,-10.6
8,0.0
9,0.0
10,0.0
11,0.0
12,0.0
13,0.0
14,3.6296505349604084
15,-11.491148826226896
16,-1.0927807021639638
17,-8.123089844344122
18,4.09576501115674
2,1, 1, 1, 0, 7,15.00,30.00,Tuesday
7,-10.6
8,0.0
9,0.0
10,0.0
11,0.0
12,0.0
13,0.0
14,3.5776809716852808
15,-11.468903888130332
16,-1.1456381240877818
17,-8.170429175593882
18,4.041272353272089
2,1, 1, 1, 0, 7,30.00,45.00,Tuesday
7,-10.6
8,0.0
9,0.0
10,0.0
11,0.0
12,0.0
13,0.0
14,3.525940809026937
15,-11.447791151821038
16,-1.1977104402219539
17,-8.216862445356583
18,3.987147758344884
2,1, 1, 1, 0, 7,45.00,60.00,Tuesday
7,-10.6
8,0.0
9,0.0
10,0.0
11,0.0
12,0.0
13,0.0
14,3.4744628254484457
15,-11.427742461311807
16,-1.2490801980235347
17,-8.26211472517025
18,3.933336789867255
2,1, 1, 1, 0, 8, 0.00,15.00,Tuesday
7,-10.45
8,0.0
9,0.0
10,0.0
11,0.0
12,0.0
13,0.0
14,3.422712196639304
15,-11.37884411991023
16,-1.250479085682855
17,-8.206584320631464
18,3.8799231404836767
2,1, 1, 1, 0, 8,15.00,30.00,Tuesday
7,-10.3
8,173.10321145631117
9,1.0
10,22.819555959623899
11,1.0
12,22.819555959623899
13,173.10321145631117
14,3.4967216239518157
15,-9.705112817346631
16,-0.9266330375122038
17,-7.851356018024944
18,3.8460228183060889
2,1, 1, 1, 0, 8,30.00,45.00,Tuesday
7,-10.15
8,849.9385033316614
9,1.0
10,109.75755355442667
11,1.0
12,109.75755355442667
13,849.9385033316614
14,3.9158643965397967
15,-3.334940910092752
16,0.3846925361966669
17,-6.658120541849371
18,3.8847642195086635
2,1, 1, 1, 0, 8,45.00,60.00,Tuesday
7,-10.0
8,1545.5219247059973
9,1.0
10,195.8764694434918
11,1.0
12,195.8764694434918
13,1545.5219247059973
14,4.458296849483546
15,3.1536003252606319
16,1.7886642785456389
17,-5.440554276440878
18,4.0027778393444779
2,1, 1, 1, 0, 9, 0.00,15.00,Tuesday
7,-9.725
8,2238.709489075825
9,1.0
10,278.97248314719988
11,1.0
12,278.97248314719988
13,2238.709489075825
14,4.869659106801046
15,8.323838488446722
16,3.1723892255660646
17,-4.356430045073637
18,4.178635091629622
2,1, 1, 1, 0, 9,15.00,30.00,Tuesday
7,-9.45
8,2969.4086166752306
9,1.0
10,364.91995730569456
11,1.0
12,364.91995730569456
13,2969.4086166752306
14,5.326025477752643
15,13.404751961597194
16,4.691614602991081
17,-3.230250171320222
18,4.401188695487535
2,1, 1, 1, 0, 9,30.00,45.00,Tuesday
7,-9.175
8,3452.8363830973496
9,1.0
10,420.35879993239237
11,1.0
12,420.35879993239237
13,3452.8363830973496
14,5.653066288808423
15,16.16250029517851
16,5.68238066788615
17,-2.541964065239881
18,4.647267687502595
2,1, 1, 1, 0, 9,45.00,60.00,Tuesday
7,-8.9
8,3954.6739069548109
9,1.0
10,478.00138373643099
11,1.0
12,478.00138373643099
13,3954.6739069548109
14,6.03345419355098
15,19.157602118978067
16,6.658474923445965
17,-1.821631967395433
18,4.9061831701369089
2,1, 1, 1, 0,10, 0.00,15.00,Tuesday
7,-8.350000000000002
8,4467.113842203691
9,1.0
10,536.9185644770597
11,1.0
12,536.9185644770597
13,4467.113842203691
14,6.360456143940797
15,20.27476849941423
16,7.632856882985038
17,-1.1463302813831434
18,5.178378478520163
2,1, 1, 1, 0,10,15.00,30.00,Tuesday
7,-7.800000000000001
8,4997.25703813173
9,1.0
10,598.0969199229219
11,1.0
12,598.0969199229219
13,4997.25703813173
14,6.716674464486012
15,21.52739478864312
16,8.621719961915972
17,-0.47010342503438098
18,5.469615815226071
2,1, 1, 1, 0,10,30.00,45.00,Tuesday
7,-7.25
8,5345.03712769667
9,1.0
10,637.6133352894237
11,1.0
12,637.6133352894237
13,5345.03712769667
14,6.994520227286133
15,21.58674215004647
16,9.322089994487613
17,-0.017206579575486104
18,5.591462606975833
2,1, 1, 1, 0,10,45.00,60.00,Tuesday
7,-6.7
8,5687.69460126509
9,1.0
10,676.6412284283772
11,1.0
12,676.6412284283772
13,5687.69460126509
14,7.250010515359615
15,21.74544556926847
16,9.980459361107137
17,0.4280513382778963
18,5.832748290662904
2,1, 1, 1, 0,11, 0.00,15.00,Tuesday
7,-6.275
8,6024.1182617392619
9,1.0
10,715.0112779846514
11,1.0
12,715.0112779846514
13,6024.1182617392619
14,7.5553112071569938
15,23.842288717427207
16,10.717685637747195
17,1.1427440304610173
18,6.020561887254791
2,1, 1, 1, 0,11,15.00,30.00,Tuesday
7,-5.85
8,6352.622926754498
9,1.0
10,752.5077794605232
11,1.0
12,752.5077794605232
13,6352.622926754498
14,7.92830433733316
15,25.77922308631261
16,11.469514269450656
17,1.8490542781305522
18,6.46181212260368
2,1, 1, 1, 0,11,30.00,45.00,Tuesday
7,-5.425
8,6254.991861714689
9,1.0
10,742.5988714321785
11,1.0
12,742.5988714321785
13,6254.991861714689
14,8.216960936772957
15,25.632980722619477
16,11.686924565483082
17,2.1343749734337509
18,6.854224378430049
2,1, 1, 1, 0,11,45.00,60.00,Tuesday
7,-5.0
8,6115.488455937522
9,1.0
10,727.8169025450712
11,1.0
12,727.8169025450712
13,6115.488455937522
14,8.467971487290227
15,25.404023464097226
16,11.823631676175524
17,2.3820370498124818
18,7.188532595570155
2,1, 1, 1, 0,12, 0.00,15.00,Tuesday
7,-4.575
8,5875.584866177884
9,1.0
10,700.3759009170325
11,1.0
12,700.3759009170325
13,5875.584866177884
14,8.646226657427274
15,24.66195013634229
16,11.8026989075546
17,2.5543176717525855
18,7.4711682109839929
2,1, 1, 1, 0,12,15.00,30.00,Tuesday
7,-4.15
8,5697.665319314475
9,1.0
10,681.6705029034473
11,1.0
12,681.6705029034473
13,5697.665319314475
14,8.808870570380345
15,24.331112175978686
16,11.84656868846912
17,2.7941416525718525
18,7.716245870973527
2,1, 1, 1, 0,12,30.00,45.00,Tuesday
7,-3.7249999999999998
8,5002.075619844998
9,1.0
10,602.01865277251
11,1.0
12,602.01865277251
13,5002.075619844998
14,8.754039567140263
15,21.303901431401014
16,11.146972665831413
17,2.504812039809508
18,7.900810811159237
2,1, 1, 1, 0,12,45.00,60.00,Tuesday
7,-3.3
8,4085.257992218691
9,1.0
10,493.55004396206007
11,1.0
12,493.55004396206007
13,4085.257992218691
14,8.566046954741534
15,17.125754558525889
16,9.99849682807826
17,1.9325800532084259
18,7.9983462813404169
2,1, 1, 1, 0,13, 0.00,15.00,Tuesday
7,-3.0249999999999996
8,3373.1820495361505
9,1.0
10,412.335026418112
11,1.0
12,412.335026418112
13,3373.1820495361505
14,8.43775266753355
15,14.28197221361822
16,9.087067945026888
17,1.5359808678872469
18,8.026631194630806
2,1, 1, 1, 0,13,15.00,30.00,Tuesday
7,-2.75
8,2470.545264965054
9,1.0
10,305.94037763660148
11,1.0
12,305.94037763660148
13,2470.545264965054
14,8.12923425506949
15,10.109401470964486
16,7.753759769703947
17,0.8696799831342332
18,7.997441707887606
2,1, 1, 1, 0,13,30.00,45.00,Tuesday
7,-2.475
8,2255.52037291475
9,1.0
10,281.0763483922329
11,1.0
12,281.0763483922329
13,2255.52037291475
14,8.110066151255035
15,9.597566769308293
16,7.500573111387666
17,0.9486084825808803
18,7.950238679972313
2,1, 1, 1, 0,13,45.00,60.00,Tuesday
7,-2.2
8,2044.9747465543583
9,1.0
10,256.7721209415886
11,1.0
12,256.7721209415886
13,2044.9747465543583
14,8.072867078997476
15,8.990408309866507
16,7.317865396843274
17,1.0543008076169259
18,7.911091790659029
2,1, 1, 1, 0,14, 0.00,15.00,Tuesday
7,-1.9250000000000003
8,1670.5363844904799
9,1.0
10,210.73276284570657
11,1.0
12,210.73276284570657
13,1670.5363844904799
14,7.930669465987501
15,7.44369860119174
16,6.825893348188288
17,0.9324260891948484
18,7.87470262717239
2,1, 1, 1, 0,14,15.00,30.00,Tuesday
7,-1.6500000000000002
8,1483.9755502209094
9,1.0
10,189.38488290342594
11,1.0
12,189.38488290342594
13,1483.9755502209094
14,7.89680826775824
15,7.03857362299422
16,6.638126801410522
17,1.0286693633184996
18,7.841108528969226
2,1, 1, 1, 0,14,30.00,45.00,Tuesday
7,-1.375
8,1415.2927051055099
9,1.0
10,179.3940297802914
11,1.0
12,179.3940297802914
13,1415.2927051055099
14,7.888295765758694
15,7.161212199589301
16,6.639758669445996
17,1.2496648135311262
18,7.813105288446248
2,1, 1, 1, 0,14,45.00,60.00,Tuesday
7,-1.1
8,1345.825196147699
9,1.0
10,169.43349014176136
11,1.0
12,169.43349014176136
13,1345.825196147699
14,7.875161811303644
15,7.260490996292038
16,6.635462322641899
17,1.467069541523415
18,7.790611363951086
2,1, 1, 1, 0,15, 0.00,15.00,Tuesday
7,-1.1
8,1416.5654514198496
9,1.0
10,178.15692317953907
11,1.0
12,178.15692317953907
13,1416.5654514198496
14,7.935724944352027
15,8.077478565606949
16,6.778671880994011
17,1.6244313012527983
18,7.777539624119002
2,1, 1, 1, 0,15,15.00,30.00,Tuesday
7,-1.1
8,1330.8243374281975
9,1.0
10,166.40516310952945
11,1.0
12,166.40516310952945
13,1330.8243374281975
14,7.884006225145138
15,7.715816477568811
16,6.654337716194391
17,1.5730423149442459
18,7.76723442788786
2,1, 1, 1, 0,15,30.00,45.00,Tuesday
7,-1.1
8,1122.127169485654
9,1.0
10,140.8967369711617
11,1.0
12,140.8967369711617
13,1122.127169485654
14,7.765987626880235
15,6.510026676546998
16,6.295427318146778
17,1.3431245706703976
18,7.748126635142066
2,1, 1, 1, 0,15,45.00,60.00,Tuesday
7,-1.1
8,923.4192090985265
9,1.0
10,116.57355796743004
11,1.0
12,116.57355796743004
13,923.4192090985265
14,7.638038013357508
15,5.298618044144824
16,5.936624310289005
17,1.107102015678663
18,7.7122443546881469
2,1, 1, 1, 0,16, 0.00,15.00,Tuesday
7,-1.1
8,732.8781698368027
9,1.0
10,93.14939272689483
11,1.0
12,93.14939272689483
13,732.8781698368027
14,7.526778853010037
15,4.249638600801133
16,5.627377385444049
17,0.9553875827438105
18,7.656805983517838
2,1, 1, 1, 0,16,15.00,30.00,Tuesday
7,-1.1
8,454.9720957967563
9,1.0
10,57.94047897402063
11,1.0
12,57.94047897402063
13,454.9720957967563
14,7.325009120183973
15,2.1255935929439517
16,5.133844199572479
17,0.6448833991124729
18,7.574922921260195
2,1, 1, 1, 0,16,30.00,45.00,Tuesday
7,-1.1
8,352.751993514124
9,1.0
10,45.38251793443488
11,1.0
12,45.38251793443488
13,352.751993514124
14,7.2475622166371249
15,1.5160860242582027
16,4.942067692108878
17,0.5987020075873488
18,7.481042691858617
2,1, 1, 1, 0,16,45.00,60.00,Tuesday
7,-1.1
8,246.24426140340877
9,1.0
10,32.02625108222755
11,1.0
12,32.02625108222755
13,246.24426140340877
14,7.129374616321411
15,0.6528681659511229
16,4.757870832902086
17,0.5477570019471045
18,7.388158839600784
2,1, 1, 1, 0,17, 0.00,15.00,Tuesday
7,-1.1
8,135.06463248996148
9,1.0
10,17.762198626050539
11,1.0
12,17.762198626050539
13,135.06463248996148
14,6.986086263297613
15,-0.5979675345435589
16,4.508595926109365
17,0.3927142393438885
18,7.29529518975566
2,1, 1, 1, 0,17,15.00,30.00,Tuesday
7,-1.1
8,0.0
9,0.0
10,0.0
11,0.0
12,0.0
13,0.0
14,6.791617955746515
15,-2.4351344336386409
16,4.161299982847879
17,0.1000009172550449
18,7.189779720039356
2,1, 1, 1, 0,17,30.00,45.00,Tuesday
7,-1.1
8,0.0
9,0.0
10,0.0
11,0.0
12,0.0
13,0.0
14,6.734825315712703
15,-2.570569684002761
16,4.107853888827663
17,0.13259653747354606
18,7.086763166602251
2,1, 1, 1, 0,17,45.00,60.00,Tuesday
7,-1.1
8,0.0
9,0.0
10,0.0
11,0.0
12,0.0
13,0.0
14,6.661509301629591
15,-2.7612721779216335
16,4.086349570867355
17,0.18177489947822779
18,7.000251751695861
2,1, 1, 1, 0,18, 0.00,15.00,Tuesday
7,-1.25
8,0.0
9,0.0
10,0.0
11,0.0
12,0.0
13,0.0
14,6.599358639449854
15,-2.9091747091374584
16,3.9843909657583937
17,0.054892541199251358
18,6.9304476821623839
2,1, 1, 1, 0,18,15.00,30.00,Tuesday
7,-1.4
8,0.0
9,0.0
10,0.0
11,0.0
12,0.0
13,0.0
14,6.542387144725137
15,-3.0616691558205728
16,3.8973325168074099
17,-0.06797636828986242
18,6.871898752475682
2,1, 1, 1, 0,18,30.00,45.00,Tuesday
7,-1.5499999999999999
8,0.0
9,0.0
10,0.0
11,0.0
12,0.0
13,0.0
14,6.489386039581191
15,-3.2137128363219449
16,3.8147595330591459
17,-0.18979525286499666
18,6.819319227492084
2,1, 1, 1, 0,18,45.00,60.00,Tuesday
7,-1.7
8,0.0
9,0.0
10,0.0
11,0.0
12,0.0
13,0.0
14,6.438195496190399
15,-3.365931250241902
16,3.734740451972357
17,-0.31073742151914987
18,6.769496183005925
2,1, 1, 1, 0,19, 0.00,15.00,Tuesday
7,-1.825
8,0.0
9,0.0
10,0.0
11,0.0
12,0.0
13,0.0
14,6.411513598589264
15,-3.219310427957866
16,3.6182995909246076
17,-0.5069444712480049
18,6.723997563781894
2,1, 1, 1, 0,19,15.00,30.00,Tuesday
7,-1.9500000000000002
8,0.0
9,0.0
10,0.0
11,0.0
12,0.0
13,0.0
14,6.383447361180746
15,-3.1539885204169035
16,3.518921289122545
17,-0.6906511444094576
18,6.68455366539932
2,1, 1, 1, 0,19,30.00,45.00,Tuesday
7,-2.075
8,0.0
9,0.0
10,0.0
11,0.0
12,0.0
13,0.0
14,6.350889383792481
15,-3.2282540332401568
16,3.453185351076172
17,-0.8122410633150707
18,6.650173135062078
2,1, 1, 1, 0,19,45.00,60.00,Tuesday
7,-2.2
8,0.0
9,0.0
10,0.0
11,0.0
12,0.0
13,0.0
14,6.320779720402305
15,-3.207272375135423
16,3.357133163605738
17,-0.9881872493625679
18,6.617776702287551
2,1, 1, 1, 0,20, 0.00,15.00,Tuesday
7,-1.9250000000000003
8,0.0
9,0.0
10,0.0
11,0.0
12,0.0
13,0.0
14,6.307459155724994
15,-2.9064568867124289
16,3.430282318126274
17,-0.8268148375573219
18,6.588751680521023
2,1, 1, 1, 0,20,15.00,30.00,Tuesday
7,-1.6500000000000002
8,0.0
9,0.0
10,0.0
11,0.0
12,0.0
13,0.0
14,6.294829518724968
15,-2.6085717767822027
16,3.494463950466411
17,-0.6465840800078127
18,6.5638950716861139
2,1, 1, 1, 0,20,30.00,45.00,Tuesday
7,-1.375
8,0.0
9,0.0
10,0.0
11,0.0
12,0.0
13,0.0
14,6.284256817668741
15,-2.311952406777497
16,3.553736805851713
17,-0.4510503796340686
18,6.5425265658373699
2,1, 1, 1, 0,20,45.00,60.00,Tuesday
7,-1.1
8,0.0
9,0.0
10,0.0
11,0.0
12,0.0
13,0.0
14,6.276678660965825
15,-2.0165865963393316
16,3.6260664555466066
17,-0.2712551835522845
18,6.523891638280626
2,1, 1, 1, 0,21, 0.00,15.00,Tuesday
7,-1.25
8,0.0
9,0.0
10,0.0
11,0.0
12,0.0
13,0.0
14,6.225689609225232
15,-2.2966429478363437
16,3.5928096251775516
17,-0.29064487405923958
18,6.500754740128827
2,1, 1, 1, 0,21,15.00,30.00,Tuesday
7,-1.4
8,0.0
9,0.0
10,0.0
11,0.0
12,0.0
13,0.0
14,6.1765269582559629
15,-2.5125747962228099
16,3.5381161507323215
17,-0.35827916392327099
18,6.468107872745913
2,1, 1, 1, 0,21,30.00,45.00,Tuesday
7,-1.5499999999999999
8,0.0
9,0.0
10,0.0
11,0.0
12,0.0
13,0.0
14,6.114209177407171
15,-2.855425875019432
16,3.5093364547740295
17,-0.3740769881318329
18,6.425421874629633
2,1, 1, 1, 0,21,45.00,60.00,Tuesday
7,-1.7
8,0.0
9,0.0
10,0.0
11,0.0
12,0.0
13,0.0
14,6.046812871482515
15,-3.305634665284938
16,3.4885466150601589
17,-0.3688466019043517
18,6.375321515712944
2,1, 1, 1, 0,22, 0.00,15.00,Tuesday
7,-1.5499999999999999
8,0.0
9,0.0
10,0.0
11,0.0
12,0.0
13,0.0
14,6.047579209381622
15,-2.8201471788793679
16,3.43632009158506
17,-0.39814372525984256
18,6.330529702621755
2,1, 1, 1, 0,22,15.00,30.00,Tuesday
7,-1.4
8,0.0
9,0.0
10,0.0
11,0.0
12,0.0
13,0.0
14,6.038183147303787
15,-2.491534384343241
16,3.4274194462072957
17,-0.39464961205550255
18,6.29810347183407
2,1, 1, 1, 0,22,30.00,45.00,Tuesday
7,-1.25
8,0.0
9,0.0
10,0.0
11,0.0
12,0.0
13,0.0
14,6.02763315588108
15,-2.272141635973212
16,3.4432878331829217
17,-0.3321451617589446
18,6.276078232109792
2,1, 1, 1, 0,22,45.00,60.00,Tuesday
7,-1.1
8,0.0
9,0.0
10,0.0
11,0.0
12,0.0
13,0.0
14,6.020811615064652
15,-1.9907925210167439
16,3.448228596134527
17,-0.3054592408575445
18,6.259296748357167
2,1, 1, 1, 0,23, 0.00,15.00,Tuesday
7,-1.25
8,0.0
9,0.0
10,0.0
11,0.0
12,0.0
13,0.0
14,5.968312601871907
15,-2.2942514597226149
16,3.3194796475149817
17,-0.5509045355001945
18,6.236863623799388
2,1, 1, 1, 0,23,15.00,30.00,Tuesday
7,-1.4
8,0.0
9,0.0
10,0.0
11,0.0
12,0.0
13,0.0
14,5.919042076952263
15,-2.5989050824061628
16,3.184281323954565
17,-0.8157927718516476
18,6.203628638604676
2,1, 1, 1, 0,23,30.00,45.00,Tuesday
7,-1.5499999999999999
8,0.0
9,0.0
10,0.0
11,0.0
12,0.0
13,0.0
14,5.8648059026874359
15,-2.904253296822869
16,3.047749537329935
17,-1.0821879906652612
18,6.160963960105145
2,1, 1, 1, 0,23,45.00,60.00,Tuesday
7,-1.7
8,0.0
9,0.0
10,0.0
11,0.0
12,0.0
13,0.0
14,5.8065263987669379
15,-3.209941266442989
16,2.9074342926957117
17,-1.3504894031794948
18,6.1120612027050449
2,1, 1, 1, 0,24, 0.00,15.00,Tuesday
7,-1.7
8,0.0
9,0.0
10,0.0
11,0.0
12,0.0
13,0.0
14,5.764809025662921
15,-3.26405782907005
16,2.8541169983755028
17,-1.4152417466806356
18,6.063014772030326
2,1, 1, 1, 0,24,15.00,30.00,Tuesday
7,-1.7
8,0.0
9,0.0
10,0.0
11,0.0
12,0.0
13,0.0
14,5.721010872011862
15,-3.3187915198291479
16,2.8032791851181857
17,-1.4760682519567468
18,6.016936649006685
2,1, 1, 1, 0,24,30.00,45.00,Tuesday
7,-1.7
8,0.0
9,0.0
10,0.0
11,0.0
12,0.0
13,0.0
14,5.678438236683991
15,-3.3734113139686587
16,2.7522230423680869
17,-1.5368358893653067
18,5.973694507876911
2,1, 1, 1, 0,24,45.00,60.00,Tuesday
7,-1.7
8,0.0
9,0.0
10,0.0
11,0.0
12,0.0
13,0.0
14,5.636774985049125
15,-3.4280337656015984
16,2.7019801905483975
17,-1.5973706246595612
18,5.932113994262116
End of Data
 Number of Records Written=        1152
