Program Version,EnergyPlus, Version 9.5.0-de239b2e5f, YMD=2023.02.13 19:58
1,5,Environment Title[],Latitude[deg],Longitude[deg],Time Zone[],Elevation[m]
2,8,Day of Simulation[],Month[],Day of Month[],DST Indicator[1=yes 0=no],Hour[],StartMinute[],EndMinute[],DayType
3,5,Cumulative Day of Simulation[],Month[],Day of Month[],DST Indicator[1=yes 0=no],DayType  ! When Daily Report Variables Requested
4,2,Cumulative Days of Simulation[],Month[]  ! When Monthly Report Variables Requested
5,1,Cumulative Days of Simulation[] ! When Run Period Report Variables Requested
6,1,Calendar Year of Simulation[] ! When Annual Report Variables Requested
7,1,Environment,Site Outdoor Air Drybulb Temperature [C] !TimeStep
8,1,ZONE ONE,Zone Windows Total Transmitted Solar Radiation Rate [W] !TimeStep
9,1,ZN001:WALL001,Surface Outside Face Sunlit Fraction [] !TimeStep
10,1,ZN001:WALL001,Surface Outside Face Incident Solar Radiation Rate per Area [W/m2] !TimeStep
11,1,ZN001:WALL001:WIN001,Surface Outside Face Sunlit Fraction [] !TimeStep
12,1,ZN001:WALL001:WIN001,Surface Outside Face Incident Solar Radiation Rate per Area [W/m2] !TimeStep
13,1,ZN001:WALL001:WIN001,Surface Window Transmitted Solar Radiation Rate [W] !TimeStep
14,1,ZN001:WALL001,Surface Inside Face Temperature [C] !TimeStep
15,1,ZN001:WALL001,Surface Outside Face Temperature [C] !TimeStep
16,1,ZN001:WALL001:WIN001,Surface Inside Face Temperature [C] !TimeStep
17,1,ZN001:WALL001:WIN001,Surface Outside Face Temperature [C] !TimeStep
18,1,ZONE ONE,Zone Mean Air Temperature [C] !TimeStep
End of Data Dictionary
1,RUN PERIOD 1,  41.98, -87.92,  -6.00, 201.00
2,1, 1, 1, 0, 1, 0.00,15.00,Tuesday
7,-4.324999999999999
8,0.0
9,0.0
10,0.0
11,0.0
12,0.0
13,0.0
14,7.552411323496292
15,-5.866496900110596
16,3.426457173164522
17,-2.936690675732393
18,8.028381938404259
2,1, 1, 1, 0, 1,15.00,30.00,Tuesday
7,-6.949999999999999
8,0.0
9,0.0
10,0.0
11,0.0
12,0.0
13,0.0
14,7.358402029828008
15,-8.333776486689543
16,2.578067887000543
17,-4.834183237980369
18,7.912205475905473
2,1, 1, 1, 0, 1,30.00,45.00,Tuesday
7,-9.575
8,0.0
9,0.0
10,0.0
11,0.0
12,0.0
13,0.0
14,7.1415551057003
15,-10.809131712343353
16,1.7220932720015299
17,-6.737694938922118
18,7.760932144849599
2,1, 1, 1, 0, 1,45.00,60.00,Tuesday
7,-12.2
8,0.0
9,0.0
10,0.0
11,0.0
12,0.0
13,0.0
14,6.907011117442442
15,-13.291136028455448
16,0.8508379182223962
17,-8.649682761704867
18,7.5859802326680489
2,1, 1, 1, 0, 2, 0.00,15.00,Tuesday
7,-12.075
8,0.0
9,0.0
10,0.0
11,0.0
12,0.0
13,0.0
14,6.823084991461432
15,-13.092087173879847
16,0.8158953887724465
17,-8.514304586194328
18,7.4300573505236529
2,1, 1, 1, 0, 2,15.00,30.00,Tuesday
7,-11.95
8,0.0
9,0.0
10,0.0
11,0.0
12,0.0
13,0.0
14,6.726725938750792
15,-12.91527817908162
16,0.8000808146499594
17,-8.408502924751588
18,7.311041851293706
2,1, 1, 1, 0, 2,30.00,45.00,Tuesday
7,-11.825
8,0.0
9,0.0
10,0.0
11,0.0
12,0.0
13,0.0
14,6.649845329264595
15,-12.737236369501972
16,0.7879097539639588
17,-8.292374961454982
18,7.221560158992337
2,1, 1, 1, 0, 2,45.00,60.00,Tuesday
7,-11.7
8,0.0
9,0.0
10,0.0
11,0.0
12,0.0
13,0.0
14,6.585305716555221
15,-12.559290198409812
16,0.7878415066020921
17,-8.170592797050859
18,7.148640089096218
2,1, 1, 1, 0, 3, 0.00,15.00,Tuesday
7,-11.549999999999999
8,0.0
9,0.0
10,0.0
11,0.0
12,0.0
13,0.0
14,6.523000274928513
15,-12.432396685742214
16,0.8010352246681123
17,-8.012768394540899
18,7.082491605527864
2,1, 1, 1, 0, 3,15.00,30.00,Tuesday
7,-11.399999999999999
8,0.0
9,0.0
10,0.0
11,0.0
12,0.0
13,0.0
14,6.464099879816413
15,-12.306841078107072
16,0.8246223887775841
17,-7.874092797783419
18,7.018705698718316
2,1, 1, 1, 0, 3,30.00,45.00,Tuesday
7,-11.25
8,0.0
9,0.0
10,0.0
11,0.0
12,0.0
13,0.0
14,6.406144141106812
15,-12.182762139146482
16,0.8465151770929538
17,-7.726382198463739
18,6.956076522043552
2,1, 1, 1, 0, 3,45.00,60.00,Tuesday
7,-11.1
8,0.0
9,0.0
10,0.0
11,0.0
12,0.0
13,0.0
14,6.348856507736133
15,-12.060216990674192
16,0.8682310258289476
17,-7.577900101861019
18,6.894451163963621
2,1, 1, 1, 0, 4, 0.00,15.00,Tuesday
7,-11.1
8,0.0
9,0.0
10,0.0
11,0.0
12,0.0
13,0.0
14,6.287246605045337
15,-12.03321772029162
16,0.7915565662324298
17,-7.634201859220525
18,6.832143933643433
2,1, 1, 1, 0, 4,15.00,30.00,Tuesday
7,-11.1
8,0.0
9,0.0
10,0.0
11,0.0
12,0.0
13,0.0
14,6.225950621730333
15,-12.007274532913727
16,0.7247767079479672
17,-7.69724172364289
18,6.76864322576625
2,1, 1, 1, 0, 4,30.00,45.00,Tuesday
7,-11.1
8,0.0
9,0.0
10,0.0
11,0.0
12,0.0
13,0.0
14,6.1641673797772
15,-11.982802740074194
16,0.659426098038864
17,-7.760315513855744
18,6.70433558470349
2,1, 1, 1, 0, 4,45.00,60.00,Tuesday
7,-11.1
8,0.0
9,0.0
10,0.0
11,0.0
12,0.0
13,0.0
14,6.102137962210072
15,-11.959666162139067
16,0.5944978398722469
17,-7.822321368109783
18,6.639725570326217
2,1, 1, 1, 0, 5, 0.00,15.00,Tuesday
7,-10.975
8,0.0
9,0.0
10,0.0
11,0.0
12,0.0
13,0.0
14,6.046047918050515
15,-11.837946596191334
16,0.5931660409173674
17,-7.753225135588195
18,6.576607079204703
2,1, 1, 1, 0, 5,15.00,30.00,Tuesday
7,-10.85
8,0.0
9,0.0
10,0.0
11,0.0
12,0.0
13,0.0
14,5.990325643548651
15,-11.716277336964716
16,0.5879842925830303
17,-7.6764210422206819
18,6.515614965505024
2,1, 1, 1, 0, 5,30.00,45.00,Tuesday
7,-10.725
8,0.0
9,0.0
10,0.0
11,0.0
12,0.0
13,0.0
14,5.935908041015689
15,-11.594578405884209
16,0.58286239567758
17,-7.598375371894463
18,6.45638249710959
2,1, 1, 1, 0, 5,45.00,60.00,Tuesday
7,-10.6
8,0.0
9,0.0
10,0.0
11,0.0
12,0.0
13,0.0
14,5.882550367892677
15,-11.472887385958713
16,0.5785907310910829
17,-7.519865716815275
18,6.398367224922437
2,1, 1, 1, 0, 6, 0.00,15.00,Tuesday
7,-10.6
8,0.0
9,0.0
10,0.0
11,0.0
12,0.0
13,0.0
14,5.822231551925489
15,-11.474052295627726
16,0.5323024259882345
17,-7.528936392132039
18,6.339662017625748
2,1, 1, 1, 0, 6,15.00,30.00,Tuesday
7,-10.6
8,0.0
9,0.0
10,0.0
11,0.0
12,0.0
13,0.0
14,5.762574849870004
15,-11.475173205252434
16,0.487979634848557
17,-7.543457191725338
18,6.2794872258047109
2,1, 1, 1, 0, 6,30.00,45.00,Tuesday
7,-10.6
8,0.0
9,0.0
10,0.0
11,0.0
12,0.0
13,0.0
14,5.702347201027378
15,-11.47633795448956
16,0.4439988948647624
17,-7.558648675115592
18,6.218203213389845
2,1, 1, 1, 0, 6,45.00,60.00,Tuesday
7,-10.6
8,0.0
9,0.0
10,0.0
11,0.0
12,0.0
13,0.0
14,5.641815463724773
15,-11.477499117814349
16,0.3997170835162933
17,-7.574071337943678
18,6.156412122431752
2,1, 1, 1, 0, 7, 0.00,15.00,Tuesday
7,-10.6
8,0.0
9,0.0
10,0.0
11,0.0
12,0.0
13,0.0
14,5.583062865031721
15,-11.455134179587893
16,0.33622197045872329
17,-7.628576619466912
18,6.094627845560653
2,1, 1, 1, 0, 7,15.00,30.00,Tuesday
7,-10.6
8,0.0
9,0.0
10,0.0
11,0.0
12,0.0
13,0.0
14,5.524183810344848
15,-11.433935526308453
16,0.2756926388036618
17,-7.683658080875034
18,6.03315625495936
2,1, 1, 1, 0, 7,30.00,45.00,Tuesday
7,-10.6
8,0.0
9,0.0
10,0.0
11,0.0
12,0.0
13,0.0
14,5.465540570624331
15,-11.413818736668539
16,0.21603438956719857
17,-7.737743645811861
18,5.972040120415143
2,1, 1, 1, 0, 7,45.00,60.00,Tuesday
7,-10.6
8,0.0
9,0.0
10,0.0
11,0.0
12,0.0
13,0.0
14,5.407166695005439
15,-11.394718138001523
16,0.15713610664295175
17,-7.790520970875946
18,5.911238414202162
2,1, 1, 1, 0, 8, 0.00,15.00,Tuesday
7,-10.45
8,0.0
9,0.0
10,0.0
11,0.0
12,0.0
13,0.0
14,5.348722070202376
15,-11.345106283539503
16,0.15332156405258957
17,-7.73106007393244
18,5.850941650632465
2,1, 1, 1, 0, 8,15.00,30.00,Tuesday
7,-10.3
8,215.5879980222353
9,1.0
10,22.819555959623899
11,1.0
12,22.819555959623899
13,215.5879980222353
14,5.423739253277296
15,-9.670985170647299
16,0.4414898536507508
17,-7.39794110191076
18,5.812084605687069
2,1, 1, 1, 0, 8,30.00,45.00,Tuesday
7,-10.15
8,1058.5392312119832
9,1.0
10,109.75755355442667
11,1.0
12,109.75755355442667
13,1058.5392312119832
14,5.865733211699573
15,-3.295523563791183
16,1.6178728322928465
17,-6.312327294221745
18,5.852996524288252
2,1, 1, 1, 0, 8,45.00,60.00,Tuesday
7,-10.0
8,1924.8399544048012
9,1.0
10,195.8764694434918
11,1.0
12,195.8764694434918
13,1924.8399544048012
14,6.456997596849658
15,3.2009859781419047
16,2.8804607147171739
17,-5.209386597895218
18,5.9796620267491529
2,1, 1, 1, 0, 9, 0.00,15.00,Tuesday
7,-9.725
8,2788.1568045040946
9,1.0
10,278.97248314719988
11,1.0
12,278.97248314719988
13,2788.1568045040946
14,6.8853922828489779
15,8.354606823360659
16,4.1084632973869479
17,-4.248521280913678
18,6.1701939711685329
2,1, 1, 1, 0, 9,15.00,30.00,Tuesday
7,-9.45
8,3698.191694964431
9,1.0
10,364.91995730569456
11,1.0
12,364.91995730569456
13,3698.191694964431
14,7.37966191687434
15,13.436744282288192
16,5.415033416579831
17,-3.265985834105095
18,6.414768893679948
2,1, 1, 1, 0, 9,30.00,45.00,Tuesday
7,-9.175
8,4300.2673206835229
9,1.0
10,420.35879993239237
11,1.0
12,420.35879993239237
13,4300.2673206835229
14,7.739435589812525
15,16.19313356259978
16,6.3447695537211079
17,-2.6281999419368278
18,6.68680718586147
2,1, 1, 1, 0, 9,45.00,60.00,Tuesday
7,-8.9
8,4925.271017558337
9,1.0
10,478.00138373643099
11,1.0
12,478.00138373643099
13,4925.271017558337
14,8.158696531797278
15,19.187919700590049
16,7.298103198444096
17,-1.9724835527286473
18,6.971085189246848
2,1, 1, 1, 0,10, 0.00,15.00,Tuesday
7,-8.350000000000002
8,5563.47927965646
9,1.0
10,536.9185644770597
11,1.0
12,536.9185644770597
13,5563.47927965646
14,8.526210275843969
15,20.3029871224292
16,8.231096931325397
17,-1.350255016895062
18,7.268126017081361
2,1, 1, 1, 0,10,15.00,30.00,Tuesday
7,-7.800000000000001
8,6223.735720388039
9,1.0
10,598.0969199229219
11,1.0
12,598.0969199229219
13,6223.735720388039
14,8.92502600177246
15,21.554081544139888
16,9.172226793775053
17,-0.722922081983711
18,7.407760742252334
2,1, 1, 1, 0,10,30.00,45.00,Tuesday
7,-7.25
8,6656.871608685562
9,1.0
10,637.6133352894237
11,1.0
12,637.6133352894237
13,6656.871608685562
14,9.197549807007908
15,21.610760275545453
16,9.833913595230343
17,-0.2983917380103094
18,7.677802103347091
2,1, 1, 1, 0,10,45.00,60.00,Tuesday
7,-6.7
8,7083.627635407371
9,1.0
10,676.6412284283772
11,1.0
12,676.6412284283772
13,7083.627635407371
14,9.462199569459682
15,21.768354430744308
16,10.446230610092926
17,0.11923542985607583
18,7.878782092045889
2,1, 1, 1, 0,11, 0.00,15.00,Tuesday
7,-6.275
8,7502.619881932496
9,1.0
10,715.0112779846514
11,1.0
12,715.0112779846514
13,7502.619881932496
14,9.882341958746205
15,23.86803083661565
16,11.183466423935557
17,0.7934056182425593
18,8.341376162772669
2,1, 1, 1, 0,11,15.00,30.00,Tuesday
7,-5.85
8,7911.749570952164
9,1.0
10,752.5077794605232
11,1.0
12,752.5077794605232
13,7911.749570952164
14,10.355369730230594
15,25.805403202477146
16,11.955084555490828
17,1.4786720206334394
18,8.773784478813703
2,1, 1, 1, 0,11,30.00,45.00,Tuesday
7,-5.425
8,7790.156876744835
9,1.0
10,742.5988714321785
11,1.0
12,742.5988714321785
13,7790.156876744835
14,10.645991531273527
15,25.657529952384704
16,12.214744404948533
17,1.7955016782166809
18,9.178296972172295
2,1, 1, 1, 0,11,45.00,60.00,Tuesday
7,-5.0
8,7616.415097398768
9,1.0
10,727.8169025450712
11,1.0
12,727.8169025450712
13,7616.415097398768
14,10.924256224088153
15,25.429463329536767
16,12.385368888693677
17,2.0631754737999019
18,9.537762666148512
2,1, 1, 1, 0,12, 0.00,15.00,Tuesday
7,-4.575
8,7317.63187899619
9,1.0
10,700.3759009170325
11,1.0
12,700.3759009170325
13,7317.63187899619
14,11.124941667340238
15,24.687647244887306
16,12.418328021108494
17,2.26758212395589
18,9.847716099233857
2,1, 1, 1, 0,12,15.00,30.00,Tuesday
7,-4.15
8,7096.045470548525
9,1.0
10,681.6705029034473
11,1.0
12,681.6705029034473
13,7096.045470548525
14,11.345825134339484
15,24.35801190311716
16,12.523476912387423
17,2.5384622106843155
18,10.120699345028278
2,1, 1, 1, 0,12,30.00,45.00,Tuesday
7,-3.7249999999999998
8,6229.736928425406
9,1.0
10,602.01865277251
11,1.0
12,602.01865277251
13,6229.736928425406
14,11.259284578616845
15,21.329354623587667
16,11.93692829993995
17,2.3323735458676539
18,10.331628998726885
2,1, 1, 1, 0,12,45.00,60.00,Tuesday
7,-3.3
8,5087.904404183855
9,1.0
10,493.55004396206007
11,1.0
12,493.55004396206007
13,5087.904404183855
14,11.066165901268127
15,17.152306344925095
16,10.902461449277098
17,1.8592278036297785
18,10.448293158687719
2,1, 1, 1, 0,13, 0.00,15.00,Tuesday
7,-3.0249999999999996
8,4201.063393949559
9,1.0
10,412.335026418112
11,1.0
12,412.335026418112
13,4201.063393949559
14,10.934115342253487
15,14.309004943124622
16,10.057396563656028
17,1.5376550508585752
18,10.490406851183966
2,1, 1, 1, 0,13,15.00,30.00,Tuesday
7,-2.75
8,3076.892122430221
9,1.0
10,305.94037763660148
11,1.0
12,305.94037763660148
13,3076.892122430221
14,10.60504284938662
15,10.136773997889036
16,8.949483035116089
17,1.0067006947266464
18,10.465872659028035
2,1, 1, 1, 0,13,30.00,45.00,Tuesday
7,-2.475
8,2809.0935899127655
9,1.0
10,281.0763483922329
11,1.0
12,281.0763483922329
13,2809.0935899127655
14,10.584934581413576
15,9.625768957514263
16,8.744401038787942
17,1.1168889650436996
18,10.417756892910783
2,1, 1, 1, 0,13,45.00,60.00,Tuesday
7,-2.2
8,2546.8736709552365
9,1.0
10,256.7721209415886
11,1.0
12,256.7721209415886
13,2546.8736709552365
14,10.543290812483442
15,9.019002468308412
16,8.61042647426882
17,1.2553257721007186
18,10.376274310241856
2,1, 1, 1, 0,14, 0.00,15.00,Tuesday
7,-1.9250000000000003
8,2080.536760270814
9,1.0
10,210.73276284570657
11,1.0
12,210.73276284570657
13,2080.536760270814
14,10.38426197613124
15,7.473077976999819
16,8.204645188133668
17,1.191428227503252
18,10.335391212983238
2,1, 1, 1, 0,14,15.00,30.00,Tuesday
7,-1.6500000000000002
8,1848.1882299855229
9,1.0
10,189.38488290342594
11,1.0
12,189.38488290342594
13,1848.1882299855229
14,10.3440582326666
15,7.068845915761444
16,8.052616529087573
17,1.3201436437990424
18,10.296120017419757
2,1, 1, 1, 0,14,30.00,45.00,Tuesday
7,-1.375
8,1762.648528253172
9,1.0
10,179.3940297802914
11,1.0
12,179.3940297802914
13,1762.648528253172
14,10.328440941277389
15,7.193031443701589
16,8.063120509952228
17,1.554663832359438
18,10.261878843729562
2,1, 1, 1, 0,14,45.00,60.00,Tuesday
7,-1.1
8,1676.1315823352277
9,1.0
10,169.43349014176136
11,1.0
12,169.43349014176136
13,1676.1315823352277
14,10.309005489576827
15,7.293430258623808
16,8.066960379415264
17,1.7859047554753716
18,10.23254144026962
2,1, 1, 1, 0,15, 0.00,15.00,Tuesday
7,-1.1
8,1764.2336451764168
9,1.0
10,178.15692317953907
11,1.0
12,178.15692317953907
13,1764.2336451764168
14,10.373005396409543
15,8.111762231163049
16,8.190527217232728
17,1.9369109342067646
18,10.213001019130818
2,1, 1, 1, 0,15,15.00,30.00,Tuesday
7,-1.1
8,1657.44905719483
9,1.0
10,166.40516310952945
11,1.0
12,166.40516310952945
13,1657.44905719483
14,10.31371062081276
15,7.750877180847577
16,8.088071093498684
17,1.9052554130565796
18,10.19553290501041
2,1, 1, 1, 0,15,30.00,45.00,Tuesday
7,-1.1
8,1397.5312645024297
9,1.0
10,140.8967369711617
11,1.0
12,140.8967369711617
13,1397.5312645024297
14,10.183263908994114
15,6.546157750994916
16,7.777816246712746
17,1.716623294448027
18,10.169125528767417
2,1, 1, 1, 0,15,45.00,60.00,Tuesday
7,-1.1
8,1150.0543343484979
9,1.0
10,116.57355796743004
11,1.0
12,116.57355796743004
13,1150.0543343484979
14,10.03583709804724
15,5.335369236246944
16,7.46220197946991
17,1.5218109824883186
18,10.129226049362816
2,1, 1, 1, 0,16, 0.00,15.00,Tuesday
7,-1.1
8,912.7487358563033
9,1.0
10,93.14939272689483
11,1.0
12,93.14939272689483
13,912.7487358563033
14,9.919326575670209
15,4.290600480803947
16,7.193352057786342
17,1.4171268025894506
18,10.071292702339678
2,1, 1, 1, 0,16,15.00,30.00,Tuesday
7,-1.1
8,566.636069103818
9,1.0
10,57.94047897402063
11,1.0
12,57.94047897402063
13,566.636069103818
14,9.700062646064037
15,2.1696956881209115
16,6.7650244667817109
17,1.1751478713194388
18,9.987132060131309
2,1, 1, 1, 0,16,30.00,45.00,Tuesday
7,-1.1
8,439.3280485110057
9,1.0
10,45.38251793443488
11,1.0
12,45.38251793443488
13,439.3280485110057
14,9.616605523607735
15,1.564478256957857
16,6.595224393334206
17,1.1684846977322537
18,9.89020843991675
2,1, 1, 1, 0,16,45.00,60.00,Tuesday
7,-1.1
8,306.6800834820858
9,1.0
10,32.02625108222755
11,1.0
12,32.02625108222755
13,306.6800834820858
14,9.48955956190218
15,0.706000786225168
16,6.439388050960247
17,1.1618609004259498
18,9.793635053313193
2,1, 1, 1, 0,17, 0.00,15.00,Tuesday
7,-1.1
8,168.21359625367695
9,1.0
10,17.762198626050539
11,1.0
12,17.762198626050539
13,168.21359625367695
14,9.337457613313994
15,-0.5384159448340848
16,6.21883315160153
17,1.052587386677942
18,9.695976259264218
2,1, 1, 1, 0,17,15.00,30.00,Tuesday
7,-1.1
8,0.0
9,0.0
10,0.0
11,0.0
12,0.0
13,0.0
14,9.132690534257782
15,-2.372597411394842
16,5.89433712354753
17,0.7876251783812904
18,9.58363441747275
2,1, 1, 1, 0,17,30.00,45.00,Tuesday
7,-1.1
8,0.0
9,0.0
10,0.0
11,0.0
12,0.0
13,0.0
14,9.069700984049483
15,-2.5050355794371454
16,5.84634489655366
17,0.847074113249846
18,9.473489272388278
2,1, 1, 1, 0,17,45.00,60.00,Tuesday
7,-1.1
8,0.0
9,0.0
10,0.0
11,0.0
12,0.0
13,0.0
14,8.989135137706642
15,-2.6904830899653358
16,5.82843976151139
17,0.9183693209132571
18,9.380699664117789
2,1, 1, 1, 0,18, 0.00,15.00,Tuesday
7,-1.25
8,0.0
9,0.0
10,0.0
11,0.0
12,0.0
13,0.0
14,8.919784438842332
15,-2.8390970114636868
16,5.7184224654006929
17,0.7870462867075503
18,9.305026054204128
2,1, 1, 1, 0,18,15.00,30.00,Tuesday
7,-1.4
8,0.0
9,0.0
10,0.0
11,0.0
12,0.0
13,0.0
14,8.855972823039572
15,-2.9916626251261246
16,5.626429200900532
17,0.6619682676665661
18,9.240431246204642
2,1, 1, 1, 0,18,30.00,45.00,Tuesday
7,-1.5499999999999999
8,0.0
9,0.0
10,0.0
11,0.0
12,0.0
13,0.0
14,8.796111794605834
15,-3.1438633086940825
16,5.538987275565432
17,0.5377373268481733
18,9.181383197271663
2,1, 1, 1, 0,18,45.00,60.00,Tuesday
7,-1.7
8,0.0
9,0.0
10,0.0
11,0.0
12,0.0
13,0.0
14,8.737943316056088
15,-3.296237878385375
16,5.4540404827495199
17,0.41431412188904917
18,9.124701814369902
2,1, 1, 1, 0,19, 0.00,15.00,Tuesday
7,-1.825
8,0.0
9,0.0
10,0.0
11,0.0
12,0.0
13,0.0
14,8.702005530903648
15,-3.1577865454919697
16,5.317692904076466
17,0.18283266664377607
18,9.071751699807307
2,1, 1, 1, 0,19,15.00,30.00,Tuesday
7,-1.9500000000000002
8,0.0
9,0.0
10,0.0
11,0.0
12,0.0
13,0.0
14,8.665421259583326
15,-3.0995857764663707
16,5.198400877577399
17,-0.038372766856014099
18,9.024314743474953
2,1, 1, 1, 0,19,30.00,45.00,Tuesday
7,-2.075
8,0.0
9,0.0
10,0.0
11,0.0
12,0.0
13,0.0
14,8.624597191074264
15,-3.17584323602538
16,5.124622925986159
17,-0.17240412048431609
18,8.981707685225098
2,1, 1, 1, 0,19,45.00,60.00,Tuesday
7,-2.2
8,0.0
9,0.0
10,0.0
11,0.0
12,0.0
13,0.0
14,8.585828630520995
15,-3.161123814522973
16,5.007700780251071
17,-0.3848414042500963
18,8.940817366668318
2,1, 1, 1, 0,20, 0.00,15.00,Tuesday
7,-1.9250000000000003
8,0.0
9,0.0
10,0.0
11,0.0
12,0.0
13,0.0
14,8.564991218231882
15,-2.8618724021288628
16,5.0716422036875319
17,-0.23398221642776208
18,8.903473159083863
2,1, 1, 1, 0,20,15.00,30.00,Tuesday
7,-1.6500000000000002
8,0.0
9,0.0
10,0.0
11,0.0
12,0.0
13,0.0
14,8.543707736992907
15,-2.5654460776369669
16,5.1253505198039879
17,-0.06406102601783914
18,8.870530075824563
2,1, 1, 1, 0,20,30.00,45.00,Tuesday
7,-1.375
8,0.0
9,0.0
10,0.0
11,0.0
12,0.0
13,0.0
14,8.52471129344483
15,-2.2701609160409146
16,5.174088712499383
17,0.12115052410115368
18,8.841149414113966
2,1, 1, 1, 0,20,45.00,60.00,Tuesday
7,-1.1
8,0.0
9,0.0
10,0.0
11,0.0
12,0.0
13,0.0
14,8.507753711072859
15,-1.97606797365785
16,5.235613763637957
17,0.2909208054092005
18,8.814360945948503
2,1, 1, 1, 0,21, 0.00,15.00,Tuesday
7,-1.25
8,0.0
9,0.0
10,0.0
11,0.0
12,0.0
13,0.0
14,8.4514412513822
15,-2.2497646171545297
16,5.219888716336754
17,0.3026969851764534
18,8.78328410820161
2,1, 1, 1, 0,21,15.00,30.00,Tuesday
7,-1.4
8,0.0
9,0.0
10,0.0
11,0.0
12,0.0
13,0.0
14,8.395767380773647
15,-2.462370863600241
16,5.164247966903872
17,0.2584908126461869
18,8.742904639358756
2,1, 1, 1, 0,21,30.00,45.00,Tuesday
7,-1.5499999999999999
8,0.0
9,0.0
10,0.0
11,0.0
12,0.0
13,0.0
14,8.327792620899919
15,-2.796786142895173
16,5.1532866554176739
17,0.2777885912306033
18,8.692989332209168
2,1, 1, 1, 0,21,45.00,60.00,Tuesday
7,-1.7
8,0.0
9,0.0
10,0.0
11,0.0
12,0.0
13,0.0
14,8.25460134048831
15,-3.237244912643222
16,5.137126002025184
17,0.33511450297243075
18,8.636083191689189
2,1, 1, 1, 0,22, 0.00,15.00,Tuesday
7,-1.5499999999999999
8,0.0
9,0.0
10,0.0
11,0.0
12,0.0
13,0.0
14,8.24569899242344
15,-2.7632281950419208
16,5.059930868275103
17,0.2581047941289967
18,8.58434311183769
2,1, 1, 1, 0,22,15.00,30.00,Tuesday
7,-1.4
8,0.0
9,0.0
10,0.0
11,0.0
12,0.0
13,0.0
14,8.227188605950147
15,-2.442345286228454
16,5.025905656022815
17,0.22053782936734479
18,8.544478063324725
2,1, 1, 1, 0,22,30.00,45.00,Tuesday
7,-1.25
8,0.0
9,0.0
10,0.0
11,0.0
12,0.0
13,0.0
14,8.20818964300959
15,-2.2264501844040618
16,5.033550888286868
17,0.2520959968462648
18,8.514674141055883
2,1, 1, 1, 0,22,45.00,60.00,Tuesday
7,-1.1
8,0.0
9,0.0
10,0.0
11,0.0
12,0.0
13,0.0
14,8.19254325948331
15,-1.951325865745432
16,5.011259399672042
17,0.2470319677253201
18,8.489752282210948
2,1, 1, 1, 0,23, 0.00,15.00,Tuesday
7,-1.25
8,0.0
9,0.0
10,0.0
11,0.0
12,0.0
13,0.0
14,8.134184946061282
15,-2.2546863727651664
16,4.880034627244186
17,-0.005315813826825888
18,8.458918188379215
2,1, 1, 1, 0,23,15.00,30.00,Tuesday
7,-1.4
8,0.0
9,0.0
10,0.0
11,0.0
12,0.0
13,0.0
14,8.078035877460654
15,-2.5594583395888215
16,4.742448323115809
17,-0.2697634914026139
18,8.41733356403807
2,1, 1, 1, 0,23,30.00,45.00,Tuesday
7,-1.5499999999999999
8,0.0
9,0.0
10,0.0
11,0.0
12,0.0
13,0.0
14,8.016836923925013
15,-2.864887668962023
16,4.603029021524151
17,-0.5355061979034872
18,8.366594039960392
2,1, 1, 1, 0,23,45.00,60.00,Tuesday
7,-1.7
8,0.0
9,0.0
10,0.0
11,0.0
12,0.0
13,0.0
14,7.951617693881944
15,-3.1706599756729769
16,4.459791070891356
17,-0.8030570334477716
18,8.309959131197579
2,1, 1, 1, 0,24, 0.00,15.00,Tuesday
7,-1.7
8,0.0
9,0.0
10,0.0
11,0.0
12,0.0
13,0.0
14,7.902529478377346
15,-3.2249648079699315
16,4.4022302202610039
17,-0.8677272380376166
18,8.2535459419537
2,1, 1, 1, 0,24,15.00,30.00,Tuesday
7,-1.7
8,0.0
9,0.0
10,0.0
11,0.0
12,0.0
13,0.0
14,7.851491768120675
15,-3.279820763504411
16,4.346509943695025
17,-0.9293194338573585
18,8.200335670148317
2,1, 1, 1, 0,24,30.00,45.00,Tuesday
7,-1.7
8,0.0
9,0.0
10,0.0
11,0.0
12,0.0
13,0.0
14,7.8018230757557529
15,-3.3345634668632386
16,4.290716102491729
17,-0.9908189154639899
18,8.15003700946736
2,1, 1, 1, 0,24,45.00,60.00,Tuesday
7,-1.7
8,0.0
9,0.0
10,0.0
11,0.0
12,0.0
13,0.0
14,7.753125551523363
15,-3.3893106454007739
16,4.2358442623670389
17,-1.052012239690157
18,8.101385475468354
End of Data
 Number of Records Written=        1152
