Program Version,EnergyPlus, Version 9.5.0-de239b2e5f, YMD=2023.02.13 19:58
1,5,Environment Title[],Latitude[deg],Longitude[deg],Time Zone[],Elevation[m]
2,8,Day of Simulation[],Month[],Day of Month[],DST Indicator[1=yes 0=no],Hour[],StartMinute[],EndMinute[],DayType
3,5,Cumulative Day of Simulation[],Month[],Day of Month[],DST Indicator[1=yes 0=no],DayType  ! When Daily Report Variables Requested
4,2,Cumulative Days of Simulation[],Month[]  ! When Monthly Report Variables Requested
5,1,Cumulative Days of Simulation[] ! When Run Period Report Variables Requested
6,1,Calendar Year of Simulation[] ! When Annual Report Variables Requested
7,1,Environment,Site Outdoor Air Drybulb Temperature [C] !TimeStep
8,1,ZONE ONE,Zone Windows Total Transmitted Solar Radiation Rate [W] !TimeStep
9,1,ZN001:WALL001,Surface Outside Face Sunlit Fraction [] !TimeStep
10,1,ZN001:WALL001,Surface Outside Face Incident Solar Radiation Rate per Area [W/m2] !TimeStep
11,1,ZN001:WALL001:WIN001,Surface Outside Face Sunlit Fraction [] !TimeStep
12,1,ZN001:WALL001:WIN001,Surface Outside Face Incident Solar Radiation Rate per Area [W/m2] !TimeStep
13,1,ZN001:WALL001:WIN001,Surface Window Transmitted Solar Radiation Rate [W] !TimeStep
14,1,ZN001:WALL001,Surface Inside Face Temperature [C] !TimeStep
15,1,ZN001:WALL001,Surface Outside Face Temperature [C] !TimeStep
16,1,ZN001:WALL001:WIN001,Surface Inside Face Temperature [C] !TimeStep
17,1,ZN001:WALL001:WIN001,Surface Outside Face Temperature [C] !TimeStep
18,1,ZONE ONE,Zone Mean Air Temperature [C] !TimeStep
End of Data Dictionary
1,RUN PERIOD 1,  41.98, -87.92,  -6.00, 201.00
2,1, 1, 1, 0, 1, 0.00,15.00,Tuesday
7,-4.324999999999999
8,0.0
9,0.0
10,0.0
11,0.0
12,0.0
13,0.0
14,3.6407438519192629
15,-5.937616600378644
16,0.9861549706081974
17,-4.219758452432757
18,4.033110290099765
2,1, 1, 1, 0, 1,15.00,30.00,Tuesday
7,-6.949999999999999
8,0.0
9,0.0
10,0.0
11,0.0
12,0.0
13,0.0
14,3.458413283760271
15,-8.405435460348759
16,0.21301299730970414
17,-6.184168283076929
18,3.9351053156119968
2,1, 1, 1, 0, 1,30.00,45.00,Tuesday
7,-9.575
8,0.0
9,0.0
10,0.0
11,0.0
12,0.0
13,0.0
14,3.2534639189586924
15,-10.881524632331919
16,-0.5643765585001574
17,-8.154699451229192
18,3.8022709432715127
2,1, 1, 1, 0, 1,45.00,60.00,Tuesday
7,-12.2
8,0.0
9,0.0
10,0.0
11,0.0
12,0.0
13,0.0
14,3.030661185508439
15,-13.364161989601767
16,-1.3561032587730325
17,-10.133691909638344
18,3.644882374111446
2,1, 1, 1, 0, 2, 0.00,15.00,Tuesday
7,-12.075
8,0.0
9,0.0
10,0.0
11,0.0
12,0.0
13,0.0
14,2.964447090964308
15,-13.165576086155229
16,-1.3969523569545573
17,-9.994416592300354
18,3.5037994551284177
2,1, 1, 1, 0, 2,15.00,30.00,Tuesday
7,-11.95
8,0.0
9,0.0
10,0.0
11,0.0
12,0.0
13,0.0
14,2.8833157577257828
15,-12.98850039204369
16,-1.4077583887759034
17,-9.874969588004206
18,3.3975296361211666
2,1, 1, 1, 0, 2,30.00,45.00,Tuesday
7,-11.825
8,0.0
9,0.0
10,0.0
11,0.0
12,0.0
13,0.0
14,2.8207313525276778
15,-12.810143804533935
16,-1.421110097256701
17,-9.735169068195433
18,3.3202043019216127
2,1, 1, 1, 0, 2,45.00,60.00,Tuesday
7,-11.7
8,0.0
9,0.0
10,0.0
11,0.0
12,0.0
13,0.0
14,2.770357167559524
15,-12.631868314888683
16,-1.4135573348329445
17,-9.610187538810465
18,3.2600016450078095
2,1, 1, 1, 0, 3, 0.00,15.00,Tuesday
7,-11.549999999999999
8,0.0
9,0.0
10,0.0
11,0.0
12,0.0
13,0.0
14,2.7220227213077048
15,-12.506658192187335
16,-1.3995245966742687
17,-9.470164409774157
18,3.2073184686241604
2,1, 1, 1, 0, 3,15.00,30.00,Tuesday
7,-11.399999999999999
8,0.0
9,0.0
10,0.0
11,0.0
12,0.0
13,0.0
14,2.677220345010655
15,-12.382856693740152
16,-1.3841224926147789
17,-9.32883704203266
18,3.1573382233253715
2,1, 1, 1, 0, 3,30.00,45.00,Tuesday
7,-11.25
8,0.0
9,0.0
10,0.0
11,0.0
12,0.0
13,0.0
14,2.633471313005667
15,-12.260626497348646
16,-1.367028813968659
17,-9.18717231910989
18,3.108577152295898
2,1, 1, 1, 0, 3,45.00,60.00,Tuesday
7,-11.1
8,0.0
9,0.0
10,0.0
11,0.0
12,0.0
13,0.0
14,2.5903325568294974
15,-12.140024857887529
16,-1.3492818888544207
17,-9.045685187113009
18,3.0607890873589085
2,1, 1, 1, 0, 4, 0.00,15.00,Tuesday
7,-11.1
8,0.0
9,0.0
10,0.0
11,0.0
12,0.0
13,0.0
14,2.5432536191680894
15,-12.11046137481079
16,-1.4056521797606366
17,-9.08001340985578
18,3.0127230646574505
2,1, 1, 1, 0, 4,15.00,30.00,Tuesday
7,-11.1
8,0.0
9,0.0
10,0.0
11,0.0
12,0.0
13,0.0
14,2.4965350408047768
15,-12.08205049110681
16,-1.4542197659554859
17,-9.121282823002958
18,2.9639438369060318
2,1, 1, 1, 0, 4,30.00,45.00,Tuesday
7,-11.1
8,0.0
9,0.0
10,0.0
11,0.0
12,0.0
13,0.0
14,2.449512710273222
15,-12.055229075209667
16,-1.5016425300808579
17,-9.162535843216688
18,2.9146576451948249
2,1, 1, 1, 0, 4,45.00,60.00,Tuesday
7,-11.1
8,0.0
9,0.0
10,0.0
11,0.0
12,0.0
13,0.0
14,2.4023315430814669
15,-12.029861010647786
16,-1.5487372121151566
17,-9.202877048461346
18,2.8651816710879527
2,1, 1, 1, 0, 5, 0.00,15.00,Tuesday
7,-10.975
8,0.0
9,0.0
10,0.0
11,0.0
12,0.0
13,0.0
14,2.3610092320246056
15,-11.907801951062487
16,-1.5451666118733556
17,-9.124862843196638
18,2.8169573522496655
2,1, 1, 1, 0, 5,15.00,30.00,Tuesday
7,-10.85
8,0.0
9,0.0
10,0.0
11,0.0
12,0.0
13,0.0
14,2.319950871892621
15,-11.785821787329118
16,-1.5445861318123662
17,-9.039113197443669
18,2.770546989981981
2,1, 1, 1, 0, 5,30.00,45.00,Tuesday
7,-10.725
8,0.0
9,0.0
10,0.0
11,0.0
12,0.0
13,0.0
14,2.2800086246117519
15,-11.6638168362209
16,-1.5439009301576335
17,-8.952294199725487
18,2.7256824637277798
2,1, 1, 1, 0, 5,45.00,60.00,Tuesday
7,-10.6
8,0.0
9,0.0
10,0.0
11,0.0
12,0.0
13,0.0
14,2.2409956975639826
15,-11.541820754919435
16,-1.5424383146172432
17,-8.865117436361516
18,2.6819213960311099
2,1, 1, 1, 0, 6, 0.00,15.00,Tuesday
7,-10.6
8,0.0
9,0.0
10,0.0
11,0.0
12,0.0
13,0.0
14,2.1947707787391526
15,-11.542747218390009
16,-1.5750245956938898
17,-8.871199082135604
18,2.6376172939608426
2,1, 1, 1, 0, 6,15.00,30.00,Tuesday
7,-10.6
8,0.0
9,0.0
10,0.0
11,0.0
12,0.0
13,0.0
14,2.1491091146406116
15,-11.543598788824982
16,-1.6141027032582543
17,-8.878581236911032
18,2.5918051999929876
2,1, 1, 1, 0, 6,30.00,45.00,Tuesday
7,-10.6
8,0.0
9,0.0
10,0.0
11,0.0
12,0.0
13,0.0
14,2.102898908612664
15,-11.544499213973097
16,-1.649306510676297
17,-8.888431688181982
18,2.5447833822663776
2,1, 1, 1, 0, 6,45.00,60.00,Tuesday
7,-10.6
8,0.0
9,0.0
10,0.0
11,0.0
12,0.0
13,0.0
14,2.0563110158459176
15,-11.545397585107584
16,-1.6846079018822025
17,-8.898874054815451
18,2.4971565425921615
2,1, 1, 1, 0, 7, 0.00,15.00,Tuesday
7,-10.6
8,0.0
9,0.0
10,0.0
11,0.0
12,0.0
13,0.0
14,2.0117399991280697
15,-11.52099036275287
16,-1.7304220074385058
17,-8.933371378505854
18,2.44959597244395
2,1, 1, 1, 0, 7,15.00,30.00,Tuesday
7,-10.6
8,0.0
9,0.0
10,0.0
11,0.0
12,0.0
13,0.0
14,1.9670104321074907
15,-11.497851380233153
16,-1.7740634125376005
17,-8.968112546954785
18,2.4024583494250244
2,1, 1, 1, 0, 7,30.00,45.00,Tuesday
7,-10.6
8,0.0
9,0.0
10,0.0
11,0.0
12,0.0
13,0.0
14,1.9225322732492963
15,-11.475886986869963
16,-1.8171169625974245
17,-9.002072723333925
18,2.3557509067279405
2,1, 1, 1, 0, 7,45.00,60.00,Tuesday
7,-10.6
8,0.0
9,0.0
10,0.0
11,0.0
12,0.0
13,0.0
14,1.8783279302539909
15,-11.455027429190457
16,-1.8595959142265884
17,-9.035051237888183
18,2.3093819504706847
2,1, 1, 1, 0, 8, 0.00,15.00,Tuesday
7,-10.45
8,0.0
9,0.0
10,0.0
11,0.0
12,0.0
13,0.0
14,1.8335576016030022
15,-11.406689057630189
16,-1.8656737450049264
17,-8.984234624562533
18,2.26319610502343
2,1, 1, 1, 0, 8,15.00,30.00,Tuesday
7,-10.3
8,123.87783879393521
9,1.0
10,22.819555959623899
11,1.0
12,22.819555959623899
13,123.87783879393521
14,1.905023838818946
15,-9.733412663946309
16,-1.4602290194405896
17,-8.569831765221693
18,2.2348254455663576
2,1, 1, 1, 0, 8,30.00,45.00,Tuesday
7,-10.15
8,609.2361052149693
9,1.0
10,109.75755355442667
11,1.0
12,109.75755355442667
13,609.2361052149693
14,2.2943249224079627
15,-3.368464073797046
16,0.16250243876783089
17,-7.146890838021818
18,2.2728554868172767
2,1, 1, 1, 0, 8,45.00,60.00,Tuesday
7,-10.0
8,1111.172358445356
9,1.0
10,195.8764694434918
11,1.0
12,195.8764694434918
13,1111.172358445356
14,2.797954482344112
15,3.1267733929398684
16,1.870860229086361
17,-5.733536607806059
18,2.3829708459175258
2,1, 1, 1, 0, 9, 0.00,15.00,Tuesday
7,-9.725
8,1614.8145795115179
9,1.0
10,278.97248314719988
11,1.0
12,278.97248314719988
13,1614.8145795115179
14,3.173747909837065
15,8.296080299148916
16,3.5418141262800875
17,-4.493876811269615
18,2.5436740396890196
2,1, 1, 1, 0, 9,15.00,30.00,Tuesday
7,-9.45
8,2149.451485223683
9,1.0
10,364.91995730569456
11,1.0
12,364.91995730569456
13,2149.451485223683
14,3.5903175509754194
15,13.37806765109316
16,5.128910599622145
17,-3.299471754241722
18,2.7471985135265957
2,1, 1, 1, 0, 9,30.00,45.00,Tuesday
7,-9.175
8,2508.346142106506
9,1.0
10,420.35879993239237
11,1.0
12,420.35879993239237
13,2508.346142106506
14,3.8827716447751197
15,16.136558724163029
16,6.143261793870693
17,-2.571531920194275
18,2.9732054830007406
2,1, 1, 1, 0, 9,45.00,60.00,Tuesday
7,-8.9
8,2882.8423826304649
9,1.0
10,478.00138373643099
11,1.0
12,478.00138373643099
13,2882.8423826304649
14,4.225573998474755
15,19.131937572041147
16,7.165960384711752
17,-1.8270830034842334
18,3.2117966166260927
2,1, 1, 1, 0,10, 0.00,15.00,Tuesday
7,-8.350000000000002
8,3267.2031696683186
9,1.0
10,536.9185644770597
11,1.0
12,536.9185644770597
13,3267.2031696683186
14,4.512407896599442
15,20.250732846236855
16,8.190954651274638
17,-1.1212859121149564
18,3.4635639453321729
2,1, 1, 1, 0,10,15.00,30.00,Tuesday
7,-7.800000000000001
8,3666.413291120194
9,1.0
10,598.0969199229219
11,1.0
12,598.0969199229219
13,3666.413291120194
14,4.826358209858334
15,21.50461579883684
16,9.234737149556509
17,-0.4148900070813397
18,3.7380179051939397
2,1, 1, 1, 0,10,30.00,45.00,Tuesday
7,-7.25
8,3933.0550318077687
9,1.0
10,637.6133352894237
11,1.0
12,637.6133352894237
13,3933.0550318077687
14,5.06879997273824
15,21.565214946105866
16,9.955920905128892
17,0.04336276594642641
18,4.02094630216591
2,1, 1, 1, 0,10,45.00,60.00,Tuesday
7,-6.7
8,4196.486591460473
9,1.0
10,676.6412284283772
11,1.0
12,676.6412284283772
13,4196.486591460473
14,5.333488779021506
15,21.72610917706088
16,10.654974603228709
17,0.49982158775640075
18,4.3006205021025079
2,1, 1, 1, 0,11, 0.00,15.00,Tuesday
7,-6.275
8,4455.537253102586
9,1.0
10,715.0112779846514
11,1.0
12,715.0112779846514
13,4455.537253102586
14,5.67534277015944
15,23.823870490946626
16,11.437553646679192
17,1.2419323123270943
18,4.579959000533367
2,1, 1, 1, 0,11,15.00,30.00,Tuesday
7,-5.85
8,4708.589163533651
9,1.0
10,752.5077794605232
11,1.0
12,752.5077794605232
13,4708.589163533651
14,6.005667621894953
15,25.75912768683547
16,12.206228892424179
17,1.9650123356311156
18,4.863598747696053
2,1, 1, 1, 0,11,30.00,45.00,Tuesday
7,-5.425
8,4641.071437787818
9,1.0
10,742.5988714321785
11,1.0
12,742.5988714321785
13,4641.071437787818
14,6.201040203502987
15,25.611141411707285
16,12.347081720400923
17,2.2305760692079845
18,5.133651854100324
2,1, 1, 1, 0,11,45.00,60.00,Tuesday
7,-5.0
8,4540.491218891129
9,1.0
10,727.8169025450712
11,1.0
12,727.8169025450712
13,4540.491218891129
14,6.391921955690904
15,25.382104700126189
16,12.40175132770662
17,2.4586060889812417
18,5.376970232064068
2,1, 1, 1, 0,12, 0.00,15.00,Tuesday
7,-4.575
8,4364.563258174008
9,1.0
10,700.3759009170325
11,1.0
12,700.3759009170325
13,4364.563258174008
14,6.5262021131639049
15,24.63963213249584
16,12.287028339716926
17,2.6032852518890765
18,5.586393226516431
2,1, 1, 1, 0,12,15.00,30.00,Tuesday
7,-4.15
8,4231.2947904945499
9,1.0
10,681.6705029034473
11,1.0
12,681.6705029034473
13,4231.2947904945499
14,6.680039487144022
15,24.309280089935844
16,12.286808123400533
17,2.8396268506199364
18,5.769807987306906
2,1, 1, 1, 0,12,30.00,45.00,Tuesday
7,-3.7249999999999998
8,3710.7631796802099
9,1.0
10,602.01865277251
11,1.0
12,602.01865277251
13,3710.7631796802099
14,6.599536566103623
15,21.28103074633519
16,11.45409156004132
17,2.5011071739664887
18,5.905257708713771
2,1, 1, 1, 0,12,45.00,60.00,Tuesday
7,-3.3
8,3028.0947855069919
9,1.0
10,493.55004396206007
11,1.0
12,493.55004396206007
13,3028.0947855069919
14,6.411596820695808
15,17.10263469054211
16,10.113609252825086
17,1.8463801922131325
18,5.968543096725825
2,1, 1, 1, 0,13, 0.00,15.00,Tuesday
7,-3.0249999999999996
8,2493.066776141015
9,1.0
10,412.335026418112
11,1.0
12,412.335026418112
13,2493.066776141015
14,6.2788754818331979
15,14.25821421536718
16,9.095937181303384
17,1.411976947393157
18,5.974430898905085
2,1, 1, 1, 0,13,15.00,30.00,Tuesday
7,-2.75
8,1819.8523785151663
9,1.0
10,305.94037763660148
11,1.0
12,305.94037763660148
13,1819.8523785151663
14,5.986943665564231
15,10.08503608519746
16,7.638321038071581
17,0.6842302534681721
18,5.931617276999012
2,1, 1, 1, 0,13,30.00,45.00,Tuesday
7,-2.475
8,1658.3119082134397
9,1.0
10,281.0763483922329
11,1.0
12,281.0763483922329
13,1658.3119082134397
14,5.96231654954007
15,9.57224948243358
16,7.335624913645802
17,0.7533465061437141
18,5.876713650821694
2,1, 1, 1, 0,13,45.00,60.00,Tuesday
7,-2.2
8,1500.1495077213409
9,1.0
10,256.7721209415886
11,1.0
12,256.7721209415886
13,1500.1495077213409
14,5.9304541782746409
15,8.96525302915391
16,7.092372809117364
17,0.8470407157929003
18,5.830166245780226
2,1, 1, 1, 0,14, 0.00,15.00,Tuesday
7,-1.9250000000000003
8,1223.4754548912934
9,1.0
10,210.73276284570657
11,1.0
12,210.73276284570657
13,1223.4754548912934
14,5.802683126482592
15,7.417538980466971
16,6.465613627485709
17,0.6707189596896797
18,5.788740156033979
2,1, 1, 1, 0,14,15.00,30.00,Tuesday
7,-1.6500000000000002
8,1083.6066169245144
9,1.0
10,189.38488290342594
11,1.0
12,189.38488290342594
13,1083.6066169245144
14,5.772154013844709
15,7.0108662818489109
16,6.216232703451283
17,0.7517702180269907
18,5.752342054529758
2,1, 1, 1, 0,14,30.00,45.00,Tuesday
7,-1.375
8,1033.9849641949475
9,1.0
10,179.3940297802914
11,1.0
12,179.3940297802914
13,1033.9849641949475
14,5.769874310285132
15,7.133662329248957
16,6.1602420714976919
17,0.9517802336963541
18,5.723125199632861
2,1, 1, 1, 0,14,45.00,60.00,Tuesday
7,-1.1
8,983.338804801501
9,1.0
10,169.43349014176136
11,1.0
12,169.43349014176136
13,983.338804801501
14,5.763779915055387
15,7.231926047229059
16,6.100573665676848
17,1.1489903371654009
18,5.700848152536936
2,1, 1, 1, 0,15, 0.00,15.00,Tuesday
7,-1.1
8,1033.916034865693
9,1.0
10,178.15692317953907
11,1.0
12,178.15692317953907
13,1033.916034865693
14,5.819338139576469
15,8.04793335532482
16,6.274018034612823
17,1.3184777660666214
18,5.6884479703683239
2,1, 1, 1, 0,15,15.00,30.00,Tuesday
7,-1.1
8,970.5605862814177
9,1.0
10,166.40516310952945
11,1.0
12,166.40516310952945
13,970.5605862814177
14,5.7731499408479058
15,7.685240528247187
16,6.095780924584801
17,1.2357659509835344
18,5.680066394770051
2,1, 1, 1, 0,15,30.00,45.00,Tuesday
7,-1.1
8,816.7254110730805
9,1.0
10,140.8967369711617
11,1.0
12,140.8967369711617
13,816.7254110730805
14,5.665831042697204
15,6.478325079701591
16,5.6300308057653869
17,0.947504836008477
18,5.665273126846995
2,1, 1, 1, 0,15,45.00,60.00,Tuesday
7,-1.1
8,670.7520999739516
9,1.0
10,116.57355796743004
11,1.0
12,116.57355796743004
13,670.7520999739516
14,5.548630111851842
15,5.258471749167676
16,5.168847827942216
17,0.6609503689716121
18,5.634550344512355
2,1, 1, 1, 0,16, 0.00,15.00,Tuesday
7,-1.1
8,531.3242103430646
9,1.0
10,93.14939272689483
11,1.0
12,93.14939272689483
13,531.3242103430646
14,5.458250158221294
15,4.215896737244785
16,4.774239752783842
17,0.4503727179599082
18,5.586505241217878
2,1, 1, 1, 0,16,15.00,30.00,Tuesday
7,-1.1
8,329.1422650881374
9,1.0
10,57.94047897402063
11,1.0
12,57.94047897402063
13,329.1422650881374
14,5.275451327908187
15,2.0878570885903158
16,4.147641416718784
17,0.04151440938608175
18,5.514433679091139
2,1, 1, 1, 0,16,30.00,45.00,Tuesday
7,-1.1
8,254.7322056029721
9,1.0
10,45.38251793443488
11,1.0
12,45.38251793443488
13,254.7322056029721
14,5.20677405096204
15,1.4745480129131193
16,3.9096284534423377
17,-0.05249697156102684
18,5.428331109691427
2,1, 1, 1, 0,16,45.00,60.00,Tuesday
7,-1.1
8,177.56161520240969
9,1.0
10,32.02625108222755
11,1.0
12,32.02625108222755
13,177.56161520240969
14,5.100067026041944
15,0.6073624761690661
16,3.668203459850929
17,-0.16176308880267244
18,5.338037897783446
2,1, 1, 1, 0,17, 0.00,15.00,Tuesday
7,-1.1
8,97.31263596887948
9,1.0
10,17.762198626050539
11,1.0
12,17.762198626050539
13,97.31263596887948
14,4.96595273738114
15,-0.6491167976137776
16,3.353931447188245
17,-0.3890436619115576
18,5.245818987143239
2,1, 1, 1, 0,17,15.00,30.00,Tuesday
7,-1.1
8,0.0
9,0.0
10,0.0
11,0.0
12,0.0
13,0.0
14,4.781730189897417
15,-2.48879625989468
16,2.9426298074550347
17,-0.7481163907183372
18,5.142436220055343
2,1, 1, 1, 0,17,30.00,45.00,Tuesday
7,-1.1
8,0.0
9,0.0
10,0.0
11,0.0
12,0.0
13,0.0
14,4.7286089859740809
15,-2.6268310427035646
16,2.870278694742524
17,-0.7544254494696361
18,5.04260044845776
2,1, 1, 1, 0,17,45.00,60.00,Tuesday
7,-1.1
8,0.0
9,0.0
10,0.0
11,0.0
12,0.0
13,0.0
14,4.6607139750687909
15,-2.8219463751051339
16,2.8347260965331317
17,-0.7526588092331394
18,4.959415186112895
2,1, 1, 1, 0,18, 0.00,15.00,Tuesday
7,-1.25
8,0.0
9,0.0
10,0.0
11,0.0
12,0.0
13,0.0
14,4.604438219846946
15,-2.96924373678073
16,2.7402347185341684
17,-0.8720403918193824
18,4.893351579762613
2,1, 1, 1, 0,18,15.00,30.00,Tuesday
7,-1.4
8,0.0
9,0.0
10,0.0
11,0.0
12,0.0
13,0.0
14,4.553362659639541
15,-3.121662880468807
16,2.6612966387815506
17,-0.9956230070881702
18,4.83932855974514
2,1, 1, 1, 0,18,30.00,45.00,Tuesday
7,-1.5499999999999999
8,0.0
9,0.0
10,0.0
11,0.0
12,0.0
13,0.0
14,4.506494841226281
15,-3.2735528140060188
16,2.586876736710906
17,-1.1177812596968125
18,4.792127260000394
2,1, 1, 1, 0,18,45.00,60.00,Tuesday
7,-1.7
8,0.0
9,0.0
10,0.0
11,0.0
12,0.0
13,0.0
14,4.461708639218952
15,-3.4256162285367126
16,2.515196752539623
17,-1.2390068077907018
18,4.748370882877169
2,1, 1, 1, 0,19, 0.00,15.00,Tuesday
7,-1.825
8,0.0
9,0.0
10,0.0
11,0.0
12,0.0
13,0.0
14,4.442856682363491
15,-3.2720645607904936
16,2.4347311363885639
17,-1.3778941213876124
18,4.709709429773146
2,1, 1, 1, 0,19,15.00,30.00,Tuesday
7,-1.9500000000000002
8,0.0
9,0.0
10,0.0
11,0.0
12,0.0
13,0.0
14,4.423075684844775
15,-3.2006188260589765
16,2.3671375506813776
17,-1.5105141555198998
18,4.677850127196747
2,1, 1, 1, 0,19,30.00,45.00,Tuesday
7,-2.075
8,0.0
9,0.0
10,0.0
11,0.0
12,0.0
13,0.0
14,4.398408279540271
15,-3.2731759068189407
16,2.3143373208096138
17,-1.6179354787584544
18,4.651441802765777
2,1, 1, 1, 0,19,45.00,60.00,Tuesday
7,-2.2
8,0.0
9,0.0
10,0.0
11,0.0
12,0.0
13,0.0
14,4.376662239035417
15,-3.2468253978193597
16,2.2506189054467429
17,-1.7477710097352315
18,4.627440547230813
2,1, 1, 1, 0,20, 0.00,15.00,Tuesday
7,-1.9250000000000003
8,0.0
9,0.0
10,0.0
11,0.0
12,0.0
13,0.0
14,4.372248718585816
15,-2.944642200277468
16,2.3225786883230059
17,-1.565826072666141
18,4.6067238719483
2,1, 1, 1, 0,20,15.00,30.00,Tuesday
7,-1.6500000000000002
8,0.0
9,0.0
10,0.0
11,0.0
12,0.0
13,0.0
14,4.367691697091589
15,-2.6455649252333486
16,2.3821416393910797
17,-1.3537636941931624
18,4.589732493588342
2,1, 1, 1, 0,20,30.00,45.00,Tuesday
7,-1.375
8,0.0
9,0.0
10,0.0
11,0.0
12,0.0
13,0.0
14,4.365070383466001
15,-2.347789112090698
16,2.447893112874965
17,-1.1468721284238655
18,4.575935306599251
2,1, 1, 1, 0,20,45.00,60.00,Tuesday
7,-1.1
8,0.0
9,0.0
10,0.0
11,0.0
12,0.0
13,0.0
14,4.3641462826449699
15,-2.051318043492117
16,2.515968917511941
17,-0.9385169766856052
18,4.564526263007921
2,1, 1, 1, 0,21, 0.00,15.00,Tuesday
7,-1.25
8,0.0
9,0.0
10,0.0
11,0.0
12,0.0
13,0.0
14,4.319557992066483
15,-2.3367427425621
16,2.470460023990313
17,-1.0173357586082262
18,4.548536767787496
2,1, 1, 1, 0,21,15.00,30.00,Tuesday
7,-1.4
8,0.0
9,0.0
10,0.0
11,0.0
12,0.0
13,0.0
14,4.27619248864387
15,-2.5555636562435435
16,2.4139263786902349
17,-1.114011991414202
18,4.523091721415051
2,1, 1, 1, 0,21,30.00,45.00,Tuesday
7,-1.5499999999999999
8,0.0
9,0.0
10,0.0
11,0.0
12,0.0
13,0.0
14,4.21913909888369
15,-2.9055556362081189
16,2.3641922358052627
17,-1.1905992541968545
18,4.487252918454686
2,1, 1, 1, 0,21,45.00,60.00,Tuesday
7,-1.7
8,0.0
9,0.0
10,0.0
11,0.0
12,0.0
13,0.0
14,4.156920895210691
15,-3.3639403183642617
16,2.3179012953413578
17,-1.2438436615378237
18,4.443269107059344
2,1, 1, 1, 0,22, 0.00,15.00,Tuesday
7,-1.5499999999999999
8,0.0
9,0.0
10,0.0
11,0.0
12,0.0
13,0.0
14,4.166144514340343
15,-2.868772348515833
16,2.306976905464012
17,-1.2183671509837382
18,4.404752526055661
2,1, 1, 1, 0,22,15.00,30.00,Tuesday
7,-1.4
8,0.0
9,0.0
10,0.0
11,0.0
12,0.0
13,0.0
14,4.164636078434112
15,-2.533540480815108
16,2.3198324053303169
17,-1.1421400130565758
18,4.378984013983088
2,1, 1, 1, 0,22,30.00,45.00,Tuesday
7,-1.25
8,0.0
9,0.0
10,0.0
11,0.0
12,0.0
13,0.0
14,4.162014894348355
15,-2.3111406603295476
16,2.347381639313312
17,-1.048075944278935
18,4.36397070715059
2,1, 1, 1, 0,22,45.00,60.00,Tuesday
7,-1.1
8,0.0
9,0.0
10,0.0
11,0.0
12,0.0
13,0.0
14,4.163271049217077
15,-2.0244754457037534
16,2.3751357240545305
17,-0.9568178889288106
18,4.354657945381105
2,1, 1, 1, 0,23, 0.00,15.00,Tuesday
7,-1.25
8,0.0
9,0.0
10,0.0
11,0.0
12,0.0
13,0.0
14,4.117847191509173
15,-2.3280227753464448
16,2.2625342018376957
17,-1.2138279216579804
18,4.340358343881248
2,1, 1, 1, 0,23,15.00,30.00,Tuesday
7,-1.4
8,0.0
9,0.0
10,0.0
11,0.0
12,0.0
13,0.0
14,4.075098020969676
15,-2.6326133260397399
16,2.1407580937988657
17,-1.4895450594657405
18,4.315624243118944
2,1, 1, 1, 0,23,30.00,45.00,Tuesday
7,-1.5499999999999999
8,0.0
9,0.0
10,0.0
11,0.0
12,0.0
13,0.0
14,4.027811678179028
15,-2.937860211584134
16,2.0173124253021799
17,-1.767326280702605
18,4.281401902524155
2,1, 1, 1, 0,23,45.00,60.00,Tuesday
7,-1.7
8,0.0
9,0.0
10,0.0
11,0.0
12,0.0
13,0.0
14,3.9765650847502429
15,-3.2434527170914579
16,1.8904641109075442
17,-2.0460001957292208
18,4.2406647179635
2,1, 1, 1, 0,24, 0.00,15.00,Tuesday
7,-1.7
8,0.0
9,0.0
10,0.0
11,0.0
12,0.0
13,0.0
14,3.9431457253610566
15,-3.2973838560877124
16,1.8430635750301577
17,-2.1085780373103946
18,4.199392905157445
2,1, 1, 1, 0,24,15.00,30.00,Tuesday
7,-1.7
8,0.0
9,0.0
10,0.0
11,0.0
12,0.0
13,0.0
14,3.905566092057664
15,-3.3520342100532667
16,1.7988118501782538
17,-2.1680224902623879
18,4.160624815764182
2,1, 1, 1, 0,24,30.00,45.00,Tuesday
7,-1.7
8,0.0
9,0.0
10,0.0
11,0.0
12,0.0
13,0.0
14,3.871081579187823
15,-3.406491167377409
16,1.7538344579789965
17,-2.227534163842904
18,4.124503480161168
2,1, 1, 1, 0,24,45.00,60.00,Tuesday
7,-1.7
8,0.0
9,0.0
10,0.0
11,0.0
12,0.0
13,0.0
14,3.8352755648413647
15,-3.461037184547993
16,1.710222385620682
17,-2.28646895698472
18,4.089914550619588
End of Data
 Number of Records Written=        1152
