Program Version,EnergyPlus, Version 9.5.0-de239b2e5f, YMD=2023.02.13 19:58
1,5,Environment Title[],Latitude[deg],Longitude[deg],Time Zone[],Elevation[m]
2,8,Day of Simulation[],Month[],Day of Month[],DST Indicator[1=yes 0=no],Hour[],StartMinute[],EndMinute[],DayType
3,5,Cumulative Day of Simulation[],Month[],Day of Month[],DST Indicator[1=yes 0=no],DayType  ! When Daily Report Variables Requested
4,2,Cumulative Days of Simulation[],Month[]  ! When Monthly Report Variables Requested
5,1,Cumulative Days of Simulation[] ! When Run Period Report Variables Requested
6,1,Calendar Year of Simulation[] ! When Annual Report Variables Requested
7,1,Environment,Site Outdoor Air Drybulb Temperature [C] !TimeStep
8,1,ZONE ONE,Zone Windows Total Transmitted Solar Radiation Rate [W] !TimeStep
9,1,ZN001:WALL001,Surface Outside Face Sunlit Fraction [] !TimeStep
10,1,ZN001:WALL001,Surface Outside Face Incident Solar Radiation Rate per Area [W/m2] !TimeStep
11,1,ZN001:WALL001:WIN001,Surface Outside Face Sunlit Fraction [] !TimeStep
12,1,ZN001:WALL001:WIN001,Surface Outside Face Incident Solar Radiation Rate per Area [W/m2] !TimeStep
13,1,ZN001:WALL001:WIN001,Surface Window Transmitted Solar Radiation Rate [W] !TimeStep
14,1,ZN001:WALL001,Surface Inside Face Temperature [C] !TimeStep
15,1,ZN001:WALL001,Surface Outside Face Temperature [C] !TimeStep
16,1,ZN001:WALL001:WIN001,Surface Inside Face Temperature [C] !TimeStep
17,1,ZN001:WALL001:WIN001,Surface Outside Face Temperature [C] !TimeStep
18,1,ZONE ONE,Zone Mean Air Temperature [C] !TimeStep
End of Data Dictionary
1,RUN PERIOD 1,  41.98, -87.92,  -6.00, 201.00
2,1, 1, 1, 0, 1, 0.00,15.00,Tuesday
7,-4.324999999999999
8,0.0
9,0.0
10,0.0
11,0.0
12,0.0
13,0.0
14,8.056841982721073
15,-5.857305062905986
16,4.347606735263412
17,-3.233362623004041
18,8.553276329580723
2,1, 1, 1, 0, 1,15.00,30.00,Tuesday
7,-6.949999999999999
8,0.0
9,0.0
10,0.0
11,0.0
12,0.0
13,0.0
14,7.865032047439391
15,-8.324444566190856
16,3.5873373537975796
17,-5.19713686111993
18,8.439916633678334
2,1, 1, 1, 0, 1,30.00,45.00,Tuesday
7,-9.575
8,0.0
9,0.0
10,0.0
11,0.0
12,0.0
13,0.0
14,7.651289038285419
15,-10.799598924650923
16,2.8195352754699458
17,-7.16681690619248
18,8.292919747698539
2,1, 1, 1, 0, 1,45.00,60.00,Tuesday
7,-12.2
8,0.0
9,0.0
10,0.0
11,0.0
12,0.0
13,0.0
14,7.420520218958407
15,-13.281402525310096
16,2.0363799959876589
17,-9.144463473309259
18,8.123175897795616
2,1, 1, 1, 0, 2, 0.00,15.00,Tuesday
7,-12.075
8,0.0
9,0.0
10,0.0
11,0.0
12,0.0
13,0.0
14,7.338493694323598
15,-13.08221623405795
16,1.9866945038577342
17,-8.998000542352316
18,7.971335261209193
2,1, 1, 1, 0, 2,15.00,30.00,Tuesday
7,-11.95
8,0.0
9,0.0
10,0.0
11,0.0
12,0.0
13,0.0
14,7.2439288951632909
15,-12.905387512381055
16,1.9623576873823368
17,-8.883267009278143
18,7.854729639538009
2,1, 1, 1, 0, 2,30.00,45.00,Tuesday
7,-11.825
8,0.0
9,0.0
10,0.0
11,0.0
12,0.0
13,0.0
14,7.167980097110422
15,-12.7273599374831
16,1.9363950008000189
17,-8.747274442944218
18,7.766335285335832
2,1, 1, 1, 0, 2,45.00,60.00,Tuesday
7,-11.7
8,0.0
9,0.0
10,0.0
11,0.0
12,0.0
13,0.0
14,7.103992449852962
15,-12.549430505978492
16,1.9314864014877458
17,-8.626821909380624
18,7.693896880312402
2,1, 1, 1, 0, 3, 0.00,15.00,Tuesday
7,-11.549999999999999
8,0.0
9,0.0
10,0.0
11,0.0
12,0.0
13,0.0
14,7.041964452874074
15,-12.422267873638577
16,1.9332127339661725
17,-8.466758203671362
18,7.627959099457005
2,1, 1, 1, 0, 3,15.00,30.00,Tuesday
7,-11.399999999999999
8,0.0
9,0.0
10,0.0
11,0.0
12,0.0
13,0.0
14,6.983233178537894
15,-12.29643091566293
16,1.9446740010752138
17,-8.325802935218974
18,7.5642230670166958
2,1, 1, 1, 0, 3,30.00,45.00,Tuesday
7,-11.25
8,0.0
9,0.0
10,0.0
11,0.0
12,0.0
13,0.0
14,6.92529153063191
15,-12.172056755205685
16,1.9492621560277713
17,-8.164596556170182
18,7.501434044341947
2,1, 1, 1, 0, 3,45.00,60.00,Tuesday
7,-11.1
8,0.0
9,0.0
10,0.0
11,0.0
12,0.0
13,0.0
14,6.868049190860713
15,-12.049205780683592
16,1.9630305366972607
17,-8.022932522051974
18,7.439594600065283
2,1, 1, 1, 0, 4, 0.00,15.00,Tuesday
7,-11.1
8,0.0
9,0.0
10,0.0
11,0.0
12,0.0
13,0.0
14,6.806593005704911
15,-12.022519065177236
16,1.8901796556755244
17,-8.074344245248767
18,7.377283972857291
2,1, 1, 1, 0, 4,15.00,30.00,Tuesday
7,-11.1
8,0.0
9,0.0
10,0.0
11,0.0
12,0.0
13,0.0
14,6.745515518883478
15,-11.996869533411634
16,1.8258000595202475
17,-8.132114698006263
18,7.3140279324839059
2,1, 1, 1, 0, 4,30.00,45.00,Tuesday
7,-11.1
8,0.0
9,0.0
10,0.0
11,0.0
12,0.0
13,0.0
14,6.684053082146406
15,-11.972674958740816
16,1.7625851042508885
17,-8.18963045623417
18,7.250125378684663
2,1, 1, 1, 0, 4,45.00,60.00,Tuesday
7,-11.1
8,0.0
9,0.0
10,0.0
11,0.0
12,0.0
13,0.0
14,6.622407163512563
15,-11.9498020534276
16,1.6997180507419217
17,-8.245996465041344
18,7.1859933569133969
2,1, 1, 1, 0, 5, 0.00,15.00,Tuesday
7,-10.975
8,0.0
9,0.0
10,0.0
11,0.0
12,0.0
13,0.0
14,6.566578610218211
15,-11.828083771961227
16,1.6913902222882485
17,-8.171757070802812
18,7.123244733422755
2,1, 1, 1, 0, 5,15.00,30.00,Tuesday
7,-10.85
8,0.0
9,0.0
10,0.0
11,0.0
12,0.0
13,0.0
14,6.511073839998007
15,-11.706416575394542
16,1.679498782664723
17,-8.089459559345528
18,7.062459030137553
2,1, 1, 1, 0, 5,30.00,45.00,Tuesday
7,-10.725
8,0.0
9,0.0
10,0.0
11,0.0
12,0.0
13,0.0
14,6.456795809578715
15,-11.58472182409081
16,1.6677517736760593
17,-8.00603864272341
18,7.003306663916394
2,1, 1, 1, 0, 5,45.00,60.00,Tuesday
7,-10.6
8,0.0
9,0.0
10,0.0
11,0.0
12,0.0
13,0.0
14,6.4035174435645418
15,-11.463035469019767
16,1.656862275155163
17,-7.922236351267884
18,6.945297142858483
2,1, 1, 1, 0, 6, 0.00,15.00,Tuesday
7,-10.6
8,0.0
9,0.0
10,0.0
11,0.0
12,0.0
13,0.0
14,6.343358660458514
15,-11.464193288838962
16,1.6086206372260677
17,-7.929122844191795
18,6.886623381764819
2,1, 1, 1, 0, 6,15.00,30.00,Tuesday
7,-10.6
8,0.0
9,0.0
10,0.0
11,0.0
12,0.0
13,0.0
14,6.283858339058471
15,-11.465310749630366
16,1.562222797308607
17,-7.941868582099062
18,6.826541243035279
2,1, 1, 1, 0, 6,30.00,45.00,Tuesday
7,-10.6
8,0.0
9,0.0
10,0.0
11,0.0
12,0.0
13,0.0
14,6.223804256749544
15,-11.466471134221959
16,1.5161238069980528
17,-7.955254308140013
18,6.765395971143866
2,1, 1, 1, 0, 6,45.00,60.00,Tuesday
7,-10.6
8,0.0
9,0.0
10,0.0
11,0.0
12,0.0
13,0.0
14,6.163456818600627
15,-11.467628023726466
16,1.4697079013945427
17,-7.968837545430745
18,6.70376373558032
2,1, 1, 1, 0, 7, 0.00,15.00,Tuesday
7,-10.6
8,0.0
9,0.0
10,0.0
11,0.0
12,0.0
13,0.0
14,6.104917255420248
15,-11.44551998018215
16,1.408142536783032
17,-8.01810005335085
18,6.642201701720993
2,1, 1, 1, 0, 7,15.00,30.00,Tuesday
7,-10.6
8,0.0
9,0.0
10,0.0
11,0.0
12,0.0
13,0.0
14,6.04627324265159
15,-11.424562603289394
16,1.3493166750189403
17,-8.067934096866509
18,6.581023823577023
2,1, 1, 1, 0, 7,30.00,45.00,Tuesday
7,-10.6
8,0.0
9,0.0
10,0.0
11,0.0
12,0.0
13,0.0
14,5.987895941501981
15,-11.404674952511027
16,1.2912425178570857
17,-8.116762900283561
18,6.520250517318127
2,1, 1, 1, 0, 7,45.00,60.00,Tuesday
7,-10.6
8,0.0
9,0.0
10,0.0
11,0.0
12,0.0
13,0.0
14,5.929807607099131
15,-11.385792517472295
16,1.2338553511069677
17,-8.164317492533258
18,6.45981599736124
2,1, 1, 1, 0, 8, 0.00,15.00,Tuesday
7,-10.45
8,0.0
9,0.0
10,0.0
11,0.0
12,0.0
13,0.0
14,5.871552205232602
15,-11.335949883836971
16,1.221615467032393
17,-8.105281891301843
18,6.399748323947522
2,1, 1, 1, 0, 8,15.00,30.00,Tuesday
7,-10.3
8,215.5879980222353
9,1.0
10,22.819555959623899
11,1.0
12,22.819555959623899
13,215.5879980222353
14,5.945708687009781
15,-9.661819035064657
16,1.4968258793891778
17,-7.781398790715002
18,6.360901324495425
2,1, 1, 1, 0, 8,30.00,45.00,Tuesday
7,-10.15
8,1058.5392312119832
9,1.0
10,109.75755355442667
11,1.0
12,109.75755355442667
13,1058.5392312119832
14,6.383268344818344
15,-3.2855195555993927
16,2.6483696582631639
17,-6.731397945213303
18,6.4015707613700318
2,1, 1, 1, 0, 8,45.00,60.00,Tuesday
7,-10.0
8,1924.8399544048012
9,1.0
10,195.8764694434918
11,1.0
12,195.8764694434918
13,1924.8399544048012
14,6.9609059349974189
15,3.2044012235235956
16,3.8937787619555594
17,-5.666680980970455
18,6.528493527524176
2,1, 1, 1, 0, 9, 0.00,15.00,Tuesday
7,-9.725
8,2788.1568045040946
9,1.0
10,278.97248314719988
11,1.0
12,278.97248314719988
13,2788.1568045040946
14,7.408099518500079
15,8.364669912426847
16,5.120772647271906
17,-4.738834204452587
18,6.717601857501706
2,1, 1, 1, 0, 9,15.00,30.00,Tuesday
7,-9.45
8,3698.191694964431
9,1.0
10,364.91995730569456
11,1.0
12,364.91995730569456
13,3698.191694964431
14,7.897542871928664
15,13.444485502331304
16,6.445550405802919
17,-3.787971580992348
18,6.960167265185372
2,1, 1, 1, 0, 9,30.00,45.00,Tuesday
7,-9.175
8,4300.2673206835229
9,1.0
10,420.35879993239237
11,1.0
12,420.35879993239237
13,4300.2673206835229
14,8.257535434801408
15,16.200757062368984
16,7.397200338664334
17,-3.1721883670501258
18,7.2290449105788119
2,1, 1, 1, 0, 9,45.00,60.00,Tuesday
7,-8.9
8,4925.271017558337
9,1.0
10,478.00138373643099
11,1.0
12,478.00138373643099
13,4925.271017558337
14,8.674489698998388
15,19.195223989821757
16,8.319130832915903
17,-2.555603982484172
18,7.511510759452453
2,1, 1, 1, 0,10, 0.00,15.00,Tuesday
7,-8.350000000000002
8,5563.47927965646
9,1.0
10,536.9185644770597
11,1.0
12,536.9185644770597
13,5563.47927965646
14,9.041346500551569
15,20.309658428915978
16,9.249449904044582
17,-1.935878797475084
18,7.808437497451255
2,1, 1, 1, 0,10,15.00,30.00,Tuesday
7,-7.800000000000001
8,6223.735720388039
9,1.0
10,598.0969199229219
11,1.0
12,598.0969199229219
13,6223.735720388039
14,9.440193074047107
15,21.56029404984159
16,10.193052801671513
17,-1.3118525920489788
18,7.948880961078739
2,1, 1, 1, 0,10,30.00,45.00,Tuesday
7,-7.25
8,6656.871608685562
9,1.0
10,637.6133352894237
11,1.0
12,637.6133352894237
13,6656.871608685562
14,9.713672840398413
15,21.616551926932926
16,10.864790537132763
17,-0.87925358931966
18,8.220229455589357
2,1, 1, 1, 0,10,45.00,60.00,Tuesday
7,-6.7
8,7083.627635407371
9,1.0
10,676.6412284283772
11,1.0
12,676.6412284283772
13,7083.627635407371
14,9.979216079179487
15,21.77379124234823
16,11.483241747638772
17,-0.4522781297575875
18,8.421835301337964
2,1, 1, 1, 0,11, 0.00,15.00,Tuesday
7,-6.275
8,7502.619881932496
9,1.0
10,715.0112779846514
11,1.0
12,715.0112779846514
13,7502.619881932496
14,10.399474688294811
15,23.873494186349875
16,12.20373146548036
17,0.21033311945086553
18,8.886091597989598
2,1, 1, 1, 0,11,15.00,30.00,Tuesday
7,-5.85
8,7911.749570952164
9,1.0
10,752.5077794605232
11,1.0
12,752.5077794605232
13,7911.749570952164
14,10.872759585254876
15,25.810834324209848
16,12.964558193178732
17,0.8825926400021444
18,9.31987894006464
2,1, 1, 1, 0,11,30.00,45.00,Tuesday
7,-5.425
8,7790.156876744835
9,1.0
10,742.5988714321785
11,1.0
12,742.5988714321785
13,7790.156876744835
14,11.163815144061739
15,25.662910174415648
16,13.22560688178271
17,1.2064016647228755
18,9.725137819943772
2,1, 1, 1, 0,11,45.00,60.00,Tuesday
7,-5.0
8,7616.415097398768
9,1.0
10,727.8169025450712
11,1.0
12,727.8169025450712
13,7616.415097398768
14,11.44211949217689
15,25.434847968645376
16,13.395712484145634
17,1.4834379251550445
18,10.084901432995603
2,1, 1, 1, 0,12, 0.00,15.00,Tuesday
7,-4.575
8,7317.63187899619
9,1.0
10,700.3759009170325
11,1.0
12,700.3759009170325
13,7317.63187899619
14,11.642764650617118
15,24.693031556279597
16,13.427159741286858
17,1.7038103309538997
18,10.394885350579394
2,1, 1, 1, 0,12,15.00,30.00,Tuesday
7,-4.15
8,7096.045470548525
9,1.0
10,681.6705029034473
11,1.0
12,681.6705029034473
13,7096.045470548525
14,11.863545170430866
15,24.363411411452466
16,13.526927174936987
17,1.98798888904264
18,10.667691223202059
2,1, 1, 1, 0,12,30.00,45.00,Tuesday
7,-3.7249999999999998
8,6229.736928425406
9,1.0
10,602.01865277251
11,1.0
12,602.01865277251
13,6229.736928425406
14,11.777228606353649
15,21.334740682393848
16,12.94884481957439
17,1.8221472363580347
18,10.878330025469753
2,1, 1, 1, 0,12,45.00,60.00,Tuesday
7,-3.3
8,5087.904404183855
9,1.0
10,493.55004396206007
11,1.0
12,493.55004396206007
13,5087.904404183855
14,11.583639678254107
15,17.1577239870075
16,11.93047891515306
17,1.406687114536112
18,10.99433935570731
2,1, 1, 1, 0,13, 0.00,15.00,Tuesday
7,-3.0249999999999996
8,4201.063393949559
9,1.0
10,412.335026418112
11,1.0
12,412.335026418112
13,4201.063393949559
14,11.450938799863199
15,14.314538006029864
16,11.102554385005249
17,1.1326880423729336
18,11.034990288406127
2,1, 1, 1, 0,13,15.00,30.00,Tuesday
7,-2.75
8,3076.892122430221
9,1.0
10,305.94037763660148
11,1.0
12,305.94037763660148
13,3076.892122430221
14,11.119351861199789
15,10.142311687110091
16,9.943059064073964
17,0.6491434323526164
18,11.01049730095415
2,1, 1, 1, 0,13,30.00,45.00,Tuesday
7,-2.475
8,2809.0935899127655
9,1.0
10,281.0763483922329
11,1.0
12,281.0763483922329
13,2809.0935899127655
14,11.09726394904428
15,9.631402629144969
16,9.714856695567505
17,0.7689815581584298
18,10.96346615236316
2,1, 1, 1, 0,13,45.00,60.00,Tuesday
7,-2.2
8,2546.8736709552365
9,1.0
10,256.7721209415886
11,1.0
12,256.7721209415886
13,2546.8736709552365
14,11.05641923300894
15,9.024823497758208
16,9.563719747813935
17,0.9227606053203203
18,10.922996579009665
2,1, 1, 1, 0,14, 0.00,15.00,Tuesday
7,-1.9250000000000003
8,2080.536760270814
9,1.0
10,210.73276284570657
11,1.0
12,210.73276284570657
13,2080.536760270814
14,10.896291816762516
15,7.478891533490772
16,9.139801923662163
17,0.8795261803870176
18,10.883181476692905
2,1, 1, 1, 0,14,15.00,30.00,Tuesday
7,-1.6500000000000002
8,1848.1882299855229
9,1.0
10,189.38488290342594
11,1.0
12,189.38488290342594
13,1848.1882299855229
14,10.853359054111449
15,7.073723748424985
16,8.967279342712573
17,1.020309844003009
18,10.845060535306553
2,1, 1, 1, 0,14,30.00,45.00,Tuesday
7,-1.375
8,1762.648528253172
9,1.0
10,179.3940297802914
11,1.0
12,179.3940297802914
13,1762.648528253172
14,10.838080922841183
15,7.199655099880742
16,8.958496632601964
17,1.2611932436151392
18,10.811573286893092
2,1, 1, 1, 0,14,45.00,60.00,Tuesday
7,-1.1
8,1676.1315823352277
9,1.0
10,169.43349014176136
11,1.0
12,169.43349014176136
13,1676.1315823352277
14,10.818765336518315
15,7.300356826824147
16,8.943044371303018
17,1.499635270352428
18,10.782780501522132
2,1, 1, 1, 0,15, 0.00,15.00,Tuesday
7,-1.1
8,1764.2336451764168
9,1.0
10,178.15692317953907
11,1.0
12,178.15692317953907
13,1764.2336451764168
14,10.88559511843095
15,8.119689989267873
16,9.059482938504175
17,1.6429920988500726
18,10.763282202390043
2,1, 1, 1, 0,15,15.00,30.00,Tuesday
7,-1.1
8,1657.44905719483
9,1.0
10,166.40516310952945
11,1.0
12,166.40516310952945
13,1657.44905719483
14,10.825616116086719
15,7.758120483556815
16,8.952694272449265
17,1.6116259494158385
18,10.745889316985702
2,1, 1, 1, 0,15,30.00,45.00,Tuesday
7,-1.1
8,1397.5312645024297
9,1.0
10,140.8967369711617
11,1.0
12,140.8967369711617
13,1397.5312645024297
14,10.693918659140924
15,6.553167530176177
16,8.637693715765863
17,1.4300522562601828
18,10.718846069380137
2,1, 1, 1, 0,15,45.00,60.00,Tuesday
7,-1.1
8,1150.0543343484979
9,1.0
10,116.57355796743004
11,1.0
12,116.57355796743004
13,1150.0543343484979
14,10.55212340816737
15,5.344635332944446
16,8.317706014559065
17,1.2419011158611966
18,10.675896515206184
2,1, 1, 1, 0,16, 0.00,15.00,Tuesday
7,-1.1
8,912.7487358563033
9,1.0
10,93.14939272689483
11,1.0
12,93.14939272689483
13,912.7487358563033
14,10.434778090167822
15,4.299928345267851
16,8.040176097707104
17,1.1437060381017546
18,10.615099886779257
2,1, 1, 1, 0,16,15.00,30.00,Tuesday
7,-1.1
8,566.636069103818
9,1.0
10,57.94047897402063
11,1.0
12,57.94047897402063
13,566.636069103818
14,10.217020147494277
15,2.179680931674309
16,7.602637022267231
17,0.912048507184636
18,10.528404331709853
2,1, 1, 1, 0,16,30.00,45.00,Tuesday
7,-1.1
8,439.3280485110057
9,1.0
10,45.38251793443488
11,1.0
12,45.38251793443488
13,439.3280485110057
14,10.13193599692569
15,1.5749670947323254
16,7.419361289199571
17,0.9083117679810471
18,10.429483364249457
2,1, 1, 1, 0,16,45.00,60.00,Tuesday
7,-1.1
8,306.6800834820858
9,1.0
10,32.02625108222755
11,1.0
12,32.02625108222755
13,306.6800834820858
14,10.004401529185845
15,0.7176457328679989
16,7.252108566769607
17,0.9050463495727854
18,10.331315326014729
2,1, 1, 1, 0,17, 0.00,15.00,Tuesday
7,-1.1
8,168.21359625367695
9,1.0
10,17.762198626050539
11,1.0
12,17.762198626050539
13,168.21359625367695
14,9.852128199562929
15,-0.5253423390702395
16,7.024783909891823
17,0.7977180013289171
18,10.232326830765644
2,1, 1, 1, 0,17,15.00,30.00,Tuesday
7,-1.1
8,0.0
9,0.0
10,0.0
11,0.0
12,0.0
13,0.0
14,9.647740560030006
15,-2.3587909709356378
16,6.703136739008073
17,0.5412802825293852
18,10.118939530791103
2,1, 1, 1, 0,17,30.00,45.00,Tuesday
7,-1.1
8,0.0
9,0.0
10,0.0
11,0.0
12,0.0
13,0.0
14,9.58369350629498
15,-2.4906102922490205
16,6.640956066263925
17,0.5985674235772649
18,10.007884592832485
2,1, 1, 1, 0,17,45.00,60.00,Tuesday
7,-1.1
8,0.0
9,0.0
10,0.0
11,0.0
12,0.0
13,0.0
14,9.502390321435847
15,-2.6748274007505996
16,6.613090245431977
17,0.6684508700370202
18,9.914223517097659
2,1, 1, 1, 0,18, 0.00,15.00,Tuesday
7,-1.25
8,0.0
9,0.0
10,0.0
11,0.0
12,0.0
13,0.0
14,9.432433689826678
15,-2.823589158298037
16,6.506772801732438
17,0.5339034354732917
18,9.83784409879199
2,1, 1, 1, 0,18,15.00,30.00,Tuesday
7,-1.4
8,0.0
9,0.0
10,0.0
11,0.0
12,0.0
13,0.0
14,9.368103924004418
15,-2.976135888047105
16,6.417422556285828
17,0.40575011592488866
18,9.772730537362012
2,1, 1, 1, 0,18,30.00,45.00,Tuesday
7,-1.5499999999999999
8,0.0
9,0.0
10,0.0
11,0.0
12,0.0
13,0.0
14,9.307824824348098
15,-3.1283331535026095
16,6.332700338126756
17,0.27847585666654597
18,9.713294536735289
2,1, 1, 1, 0,18,45.00,60.00,Tuesday
7,-1.7
8,0.0
9,0.0
10,0.0
11,0.0
12,0.0
13,0.0
14,9.249303558146986
15,-3.2807018142697266
16,6.250598722930931
17,0.1519596016614173
18,9.656297156960857
2,1, 1, 1, 0,19, 0.00,15.00,Tuesday
7,-1.825
8,0.0
9,0.0
10,0.0
11,0.0
12,0.0
13,0.0
14,9.212949354222376
15,-3.144059160243771
16,6.127394003255176
17,-0.07557828120860677
18,9.603221140881998
2,1, 1, 1, 0,19,15.00,30.00,Tuesday
7,-1.9500000000000002
8,0.0
9,0.0
10,0.0
11,0.0
12,0.0
13,0.0
14,9.176035056869426
15,-3.087423424951567
16,6.021337866714475
17,-0.29085716448912538
18,9.555877538606314
2,1, 1, 1, 0,19,30.00,45.00,Tuesday
7,-2.075
8,0.0
9,0.0
10,0.0
11,0.0
12,0.0
13,0.0
14,9.1349650107809
15,-3.164080312458822
16,5.952516440533259
17,-0.4247465823573293
18,9.513409332151588
2,1, 1, 1, 0,19,45.00,60.00,Tuesday
7,-2.2
8,0.0
9,0.0
10,0.0
11,0.0
12,0.0
13,0.0
14,9.096114138648991
15,-3.1507380681969074
16,5.849611603433914
17,-0.6299040925832173
18,9.472726461165186
2,1, 1, 1, 0,20, 0.00,15.00,Tuesday
7,-1.9250000000000003
8,0.0
9,0.0
10,0.0
11,0.0
12,0.0
13,0.0
14,9.07480623677068
15,-2.851806514045577
16,5.903305869565088
17,-0.46855033681390526
18,9.435366832228456
2,1, 1, 1, 0,20,15.00,30.00,Tuesday
7,-1.6500000000000002
8,0.0
9,0.0
10,0.0
11,0.0
12,0.0
13,0.0
14,9.052898480249802
15,-2.555676214838262
16,5.941980156660691
17,-0.27697405305605118
18,9.401987804769825
2,1, 1, 1, 0,20,30.00,45.00,Tuesday
7,-1.375
8,0.0
9,0.0
10,0.0
11,0.0
12,0.0
13,0.0
14,9.033271336299896
15,-2.2606797023590965
16,5.986262647395961
17,-0.09024790286804319
18,9.371945037650577
2,1, 1, 1, 0,20,45.00,60.00,Tuesday
7,-1.1
8,0.0
9,0.0
10,0.0
11,0.0
12,0.0
13,0.0
14,9.0154468256338
15,-1.9668566419329746
16,6.0334227851655559
17,0.09928849866048495
18,9.344303636396543
2,1, 1, 1, 0,21, 0.00,15.00,Tuesday
7,-1.25
8,0.0
9,0.0
10,0.0
11,0.0
12,0.0
13,0.0
14,8.958751824473947
15,-2.2390870107602898
16,6.011421295041373
17,0.09291105209592843
18,9.312303133396004
2,1, 1, 1, 0,21,15.00,30.00,Tuesday
7,-1.4
8,0.0
9,0.0
10,0.0
11,0.0
12,0.0
13,0.0
14,8.902757791777264
15,-2.450903018992704
16,5.95629655017342
17,0.03680819325529683
18,9.271082502588517
2,1, 1, 1, 0,21,30.00,45.00,Tuesday
7,-1.5499999999999999
8,0.0
9,0.0
10,0.0
11,0.0
12,0.0
13,0.0
14,8.834380856221703
15,-2.783347553298874
16,5.934200394681284
17,0.04379874309790921
18,9.220343185470013
2,1, 1, 1, 0,21,45.00,60.00,Tuesday
7,-1.7
8,0.0
9,0.0
10,0.0
11,0.0
12,0.0
13,0.0
14,8.760789334859315
15,-3.221515636171689
16,5.9086081870677848
17,0.09152455963123885
18,9.162539011647534
2,1, 1, 1, 0,22, 0.00,15.00,Tuesday
7,-1.5499999999999999
8,0.0
9,0.0
10,0.0
11,0.0
12,0.0
13,0.0
14,8.750913345300525
15,-2.750160149578795
16,5.838659643569031
17,0.027167361274905489
18,9.110097906155174
2,1, 1, 1, 0,22,15.00,30.00,Tuesday
7,-1.4
8,0.0
9,0.0
10,0.0
11,0.0
12,0.0
13,0.0
14,8.731534225717047
15,-2.4310325812116897
16,5.809984284894199
17,0.003524490608128872
18,9.069791860067534
2,1, 1, 1, 0,22,30.00,45.00,Tuesday
7,-1.25
8,0.0
9,0.0
10,0.0
11,0.0
12,0.0
13,0.0
14,8.711741404465095
15,-2.215911215490616
16,5.812091736746538
17,0.051373395422501747
18,9.039592379395721
2,1, 1, 1, 0,22,45.00,60.00,Tuesday
7,-1.1
8,0.0
9,0.0
10,0.0
11,0.0
12,0.0
13,0.0
14,8.695524890205134
15,-1.9422035958994335
16,5.796742294234036
17,0.05424732011294964
18,9.014288713826322
2,1, 1, 1, 0,23, 0.00,15.00,Tuesday
7,-1.25
8,0.0
9,0.0
10,0.0
11,0.0
12,0.0
13,0.0
14,8.637171535503468
15,-2.2455042967640685
16,5.677617507274022
17,-0.20632974281596717
18,8.983209929650596
2,1, 1, 1, 0,23,15.00,30.00,Tuesday
7,-1.4
8,0.0
9,0.0
10,0.0
11,0.0
12,0.0
13,0.0
14,8.58102181694507
15,-2.5502650018646304
16,5.550373160904314
17,-0.47972204241375496
18,8.941546098957275
2,1, 1, 1, 0,23,30.00,45.00,Tuesday
7,-1.5499999999999999
8,0.0
9,0.0
10,0.0
11,0.0
12,0.0
13,0.0
14,8.519860479287877
15,-2.8556812448087776
16,5.421212413591377
17,-0.7543827274108708
18,8.890867820091096
2,1, 1, 1, 0,23,45.00,60.00,Tuesday
7,-1.7
8,0.0
9,0.0
10,0.0
11,0.0
12,0.0
13,0.0
14,8.454722593659284
15,-3.161441032237638
16,5.288095947180182
17,-1.0307894562449747
18,8.834394752705397
2,1, 1, 1, 0,24, 0.00,15.00,Tuesday
7,-1.7
8,0.0
9,0.0
10,0.0
11,0.0
12,0.0
13,0.0
14,8.405450285006362
15,-3.215762520430512
16,5.230037858767389
17,-1.0961598141130935
18,8.77806833476997
2,1, 1, 1, 0,24,15.00,30.00,Tuesday
7,-1.7
8,0.0
9,0.0
10,0.0
11,0.0
12,0.0
13,0.0
14,8.35423138461297
15,-3.2706211472078126
16,5.174591682927485
17,-1.1584742262465398
18,8.724808663150388
2,1, 1, 1, 0,24,30.00,45.00,Tuesday
7,-1.7
8,0.0
9,0.0
10,0.0
11,0.0
12,0.0
13,0.0
14,8.304339115035367
15,-3.3253688180190208
16,5.119072127932441
17,-1.2207777065664232
18,8.674348833585855
2,1, 1, 1, 0,24,45.00,60.00,Tuesday
7,-1.7
8,0.0
9,0.0
10,0.0
11,0.0
12,0.0
13,0.0
14,8.255386630983067
15,-3.3801211655981056
16,5.064487295691038
17,-1.2828620821719597
18,8.625470409096487
End of Data
 Number of Records Written=        1152
