Program Version,EnergyPlus, Version 9.5.0-de239b2e5f, YMD=2023.02.13 19:58
1,5,Environment Title[],Latitude[deg],Longitude[deg],Time Zone[],Elevation[m]
2,8,Day of Simulation[],Month[],Day of Month[],DST Indicator[1=yes 0=no],Hour[],StartMinute[],EndMinute[],DayType
3,5,Cumulative Day of Simulation[],Month[],Day of Month[],DST Indicator[1=yes 0=no],DayType  ! When Daily Report Variables Requested
4,2,Cumulative Days of Simulation[],Month[]  ! When Monthly Report Variables Requested
5,1,Cumulative Days of Simulation[] ! When Run Period Report Variables Requested
6,1,Calendar Year of Simulation[] ! When Annual Report Variables Requested
7,1,Environment,Site Outdoor Air Drybulb Temperature [C] !TimeStep
8,1,ZONE ONE,Zone Windows Total Transmitted Solar Radiation Rate [W] !TimeStep
9,1,ZN001:WALL001,Surface Outside Face Sunlit Fraction [] !TimeStep
10,1,ZN001:WALL001,Surface Outside Face Incident Solar Radiation Rate per Area [W/m2] !TimeStep
11,1,ZN001:WALL001:WIN001,Surface Outside Face Sunlit Fraction [] !TimeStep
12,1,ZN001:WALL001:WIN001,Surface Outside Face Incident Solar Radiation Rate per Area [W/m2] !TimeStep
13,1,ZN001:WALL001:WIN001,Surface Window Transmitted Solar Radiation Rate [W] !TimeStep
14,1,ZN001:WALL001,Surface Inside Face Temperature [C] !TimeStep
15,1,ZN001:WALL001,Surface Outside Face Temperature [C] !TimeStep
16,1,ZN001:WALL001:WIN001,Surface Inside Face Temperature [C] !TimeStep
17,1,ZN001:WALL001:WIN001,Surface Outside Face Temperature [C] !TimeStep
18,1,ZONE ONE,Zone Mean Air Temperature [C] !TimeStep
End of Data Dictionary
1,RUN PERIOD 1,  41.98, -87.92,  -6.00, 201.00
2,1, 1, 1, 0, 1, 0.00,15.00,Tuesday
7,-4.324999999999999
8,0.0
9,0.0
10,0.0
11,0.0
12,0.0
13,0.0
14,-0.5198600351502577
15,-6.013828560459348
16,-1.8662263798031518
17,-5.339209614241042
18,-0.23058532045344869
2,1, 1, 1, 0, 1,15.00,30.00,Tuesday
7,-6.949999999999999
8,0.0
9,0.0
10,0.0
11,0.0
12,0.0
13,0.0
14,-0.6921797355255265
15,-8.481718842723688
16,-2.562211070430749
17,-7.375397215652072
18,-0.30994284310760319
2,1, 1, 1, 0, 1,30.00,45.00,Tuesday
7,-9.575
8,0.0
9,0.0
10,0.0
11,0.0
12,0.0
13,0.0
14,-0.8873482009274809
15,-10.958612056085454
16,-3.256647639122775
17,-9.418082444423363
18,-0.42438949807130507
2,1, 1, 1, 0, 1,45.00,60.00,Tuesday
7,-12.2
8,0.0
9,0.0
10,0.0
11,0.0
12,0.0
13,0.0
14,-1.097346816781902
15,-13.441917052536283
16,-3.963989177966596
17,-11.469669609425182
18,-0.5645800177983887
2,1, 1, 1, 0, 2, 0.00,15.00,Tuesday
7,-12.075
8,0.0
9,0.0
10,0.0
11,0.0
12,0.0
13,0.0
14,-1.1469305309476717
15,-13.243940724941071
16,-4.01156601567061
17,-11.33292551161287
18,-0.6916495031913772
2,1, 1, 1, 0, 2,15.00,30.00,Tuesday
7,-11.95
8,0.0
9,0.0
10,0.0
11,0.0
12,0.0
13,0.0
14,-1.21280603264707
15,-13.066569294518846
16,-4.017364841532469
17,-11.19999223610671
18,-0.7863730655369123
2,1, 1, 1, 0, 2,30.00,45.00,Tuesday
7,-11.825
8,0.0
9,0.0
10,0.0
11,0.0
12,0.0
13,0.0
14,-1.2613735980836723
15,-12.887910143792793
16,-4.026758553983143
17,-11.046845983621666
18,-0.8527298284746084
2,1, 1, 1, 0, 2,45.00,60.00,Tuesday
7,-11.7
8,0.0
9,0.0
10,0.0
11,0.0
12,0.0
13,0.0
14,-1.2980167577195028
15,-12.7093063809535
16,-4.015749719397434
17,-10.909571455534206
18,-0.9012977766699925
2,1, 1, 1, 0, 3, 0.00,15.00,Tuesday
7,-11.549999999999999
8,0.0
9,0.0
10,0.0
11,0.0
12,0.0
13,0.0
14,-1.3328899927897016
15,-12.585913142246119
16,-4.005529498428189
17,-10.777157192166897
18,-0.9414612510636661
2,1, 1, 1, 0, 3,15.00,30.00,Tuesday
7,-11.399999999999999
8,0.0
9,0.0
10,0.0
11,0.0
12,0.0
13,0.0
14,-1.363955789102931
15,-12.46400086168784
16,-3.9931169674989066
17,-10.645054326996103
18,-0.9782877043286525
2,1, 1, 1, 0, 3,30.00,45.00,Tuesday
7,-11.25
8,0.0
9,0.0
10,0.0
11,0.0
12,0.0
13,0.0
14,-1.3927773841544427
15,-12.343752861951593
16,-3.978710436707047
17,-10.513056374011399
18,-1.0134482061592774
2,1, 1, 1, 0, 3,45.00,60.00,Tuesday
7,-11.1
8,0.0
9,0.0
10,0.0
11,0.0
12,0.0
13,0.0
14,-1.4229912215699153
15,-12.225271376943616
16,-3.963280386227666
17,-10.381434098616126
18,-1.0475549925211579
2,1, 1, 1, 0, 4, 0.00,15.00,Tuesday
7,-11.1
8,0.0
9,0.0
10,0.0
11,0.0
12,0.0
13,0.0
14,-1.4555679357384557
15,-12.19296091758032
16,-3.999943892315059
17,-10.392867638463372
18,-1.0815915386703157
2,1, 1, 1, 0, 4,15.00,30.00,Tuesday
7,-11.1
8,0.0
9,0.0
10,0.0
11,0.0
12,0.0
13,0.0
14,-1.4878819167246667
15,-12.16195553244107
16,-4.03090538734142
17,-10.41118232946667
18,-1.1158987884507419
2,1, 1, 1, 0, 4,30.00,45.00,Tuesday
7,-11.1
8,0.0
9,0.0
10,0.0
11,0.0
12,0.0
13,0.0
14,-1.5203286166098296
15,-12.132657380657906
16,-4.061100772407485
17,-10.429709590391326
18,-1.1504029321212146
2,1, 1, 1, 0, 4,45.00,60.00,Tuesday
7,-11.1
8,0.0
9,0.0
10,0.0
11,0.0
12,0.0
13,0.0
14,-1.5528461184575274
15,-12.104934991815464
16,-4.091092525853014
17,-10.447723831392182
18,-1.184952136918772
2,1, 1, 1, 0, 5, 0.00,15.00,Tuesday
7,-10.975
8,0.0
9,0.0
10,0.0
11,0.0
12,0.0
13,0.0
14,-1.578577498915133
15,-11.982528548793875
16,-4.082459744782682
17,-10.361272579333957
18,-1.2183330783585938
2,1, 1, 1, 0, 5,15.00,30.00,Tuesday
7,-10.85
8,0.0
9,0.0
10,0.0
11,0.0
12,0.0
13,0.0
14,-1.6050562498597368
15,-11.860268154697489
16,-4.075483844069254
17,-10.26715247114305
18,-1.2501062731198336
2,1, 1, 1, 0, 5,30.00,45.00,Tuesday
7,-10.725
8,0.0
9,0.0
10,0.0
11,0.0
12,0.0
13,0.0
14,-1.6305135363383457
15,-11.737949692257145
16,-4.068557461163209
17,-10.172198257223954
18,-1.2805390705338693
2,1, 1, 1, 0, 5,45.00,60.00,Tuesday
7,-10.6
8,0.0
9,0.0
10,0.0
11,0.0
12,0.0
13,0.0
14,-1.655173451703933
15,-11.615644572322334
16,-4.060912675990721
17,-10.076972502014997
18,-1.3100128794073103
2,1, 1, 1, 0, 6, 0.00,15.00,Tuesday
7,-10.6
8,0.0
9,0.0
10,0.0
11,0.0
12,0.0
13,0.0
14,-1.6883738348799707
15,-11.616344380111397
16,-4.0846886921686409
17,-10.07810081123057
18,-1.3401493362910837
2,1, 1, 1, 0, 6,15.00,30.00,Tuesday
7,-10.6
8,0.0
9,0.0
10,0.0
11,0.0
12,0.0
13,0.0
14,-1.7200719318085949
15,-11.616900609049062
16,-4.110333522548331
17,-10.083116337846719
18,-1.3717104454220984
2,1, 1, 1, 0, 6,30.00,45.00,Tuesday
7,-10.6
8,0.0
9,0.0
10,0.0
11,0.0
12,0.0
13,0.0
14,-1.752421044171515
15,-11.617538830361898
16,-4.135711668996237
17,-10.088966204116446
18,-1.404444645074626
2,1, 1, 1, 0, 6,45.00,60.00,Tuesday
7,-10.6
8,0.0
9,0.0
10,0.0
11,0.0
12,0.0
13,0.0
14,-1.7851407931307322
15,-11.61817362805682
16,-4.161377361041843
17,-10.095225605745896
18,-1.4378412453788599
2,1, 1, 1, 0, 7, 0.00,15.00,Tuesday
7,-10.6
8,0.0
9,0.0
10,0.0
11,0.0
12,0.0
13,0.0
14,-1.814587915630833
15,-11.591599657795209
16,-4.192607613658936
17,-10.108010296143903
18,-1.4711233515667522
2,1, 1, 1, 0, 7,15.00,30.00,Tuesday
7,-10.6
8,0.0
9,0.0
10,0.0
11,0.0
12,0.0
13,0.0
14,-1.8462436258638813
15,-11.566441036558456
16,-4.218080531699684
17,-10.120996912453052
18,-1.5039442898964913
2,1, 1, 1, 0, 7,30.00,45.00,Tuesday
7,-10.6
8,0.0
9,0.0
10,0.0
11,0.0
12,0.0
13,0.0
14,-1.8755554746145907
15,-11.542479248943858
16,-4.24728590423689
17,-10.135523014220212
18,-1.5362974513573929
2,1, 1, 1, 0, 7,45.00,60.00,Tuesday
7,-10.6
8,0.0
9,0.0
10,0.0
11,0.0
12,0.0
13,0.0
14,-1.9057077261797356
15,-11.519793275109514
16,-4.2718770703593809
17,-10.147722749648949
18,-1.5682047687619135
2,1, 1, 1, 0, 8, 0.00,15.00,Tuesday
7,-10.45
8,0.0
9,0.0
10,0.0
11,0.0
12,0.0
13,0.0
14,-1.9378292772842077
15,-11.472826830244227
16,-4.276711471500789
17,-10.11780098065418
18,-1.6002908413559094
2,1, 1, 1, 0, 8,15.00,30.00,Tuesday
7,-10.3
8,48.37781979229514
9,1.0
10,22.819555959623899
11,1.0
12,22.819555959623899
13,48.37781979229514
14,-1.8684352642018863
15,-9.800267367863775
16,-3.8959324275817837
17,-9.738824573432226
18,-1.6195614130806162
2,1, 1, 1, 0, 8,30.00,45.00,Tuesday
7,-10.15
8,237.88593593245407
9,1.0
10,109.75755355442667
11,1.0
12,109.75755355442667
13,237.88593593245407
14,-1.5267986457415528
15,-3.44705428108308
16,-2.3253074692731845
17,-8.412598400029083
18,-1.5909417394297095
2,1, 1, 1, 0, 8,45.00,60.00,Tuesday
7,-10.0
8,433.6486066510219
9,1.0
10,195.8764694434918
11,1.0
12,195.8764694434918
13,433.6486066510219
14,-1.1142235318872367
15,3.0455605523901427
16,-0.6053778763963464
17,-7.0839232919597638
18,-1.509453592761553
2,1, 1, 1, 0, 9, 0.00,15.00,Tuesday
7,-9.725
8,629.8133241912386
9,1.0
10,278.97248314719988
11,1.0
12,278.97248314719988
13,629.8133241912386
14,-0.7999387380092659
15,8.233577794001084
16,0.9144328373354256
17,-5.903818656778753
18,-1.3849662635842586
2,1, 1, 1, 0, 9,15.00,30.00,Tuesday
7,-9.45
8,837.7116854113558
9,1.0
10,364.91995730569456
11,1.0
12,364.91995730569456
13,837.7116854113558
14,-0.46104652939107856
15,13.315252013276626
16,2.4357186233849008
17,-4.747597580466561
18,-1.2240697530936325
2,1, 1, 1, 0, 9,30.00,45.00,Tuesday
7,-9.175
8,976.7624830576193
9,1.0
10,420.35879993239237
11,1.0
12,420.35879993239237
13,976.7624830576193
14,-0.23574915094616878
15,16.076092729228088
16,3.4331768881401105
17,-4.015131401412873
18,-1.0443401511158812
2,1, 1, 1, 0, 9,45.00,60.00,Tuesday
7,-8.9
8,1121.6146084510393
9,1.0
10,478.00138373643099
11,1.0
12,478.00138373643099
13,1121.6146084510393
14,0.03112873126827931
15,19.07217682531987
16,4.441448407887492
17,-3.266100483075263
18,-0.8533376452084871
2,1, 1, 1, 0,10, 0.00,15.00,Tuesday
7,-8.350000000000002
8,1270.0269553388162
9,1.0
10,536.9185644770597
11,1.0
12,536.9185644770597
13,1270.0269553388162
14,0.23552144802495884
15,20.19500848316836
16,5.4748725717181518
17,-2.4911298852618986
18,-0.6474559897481989
2,1, 1, 1, 0,10,15.00,30.00,Tuesday
7,-7.800000000000001
8,1423.952062283466
9,1.0
10,598.0969199229219
11,1.0
12,598.0969199229219
13,1423.952062283466
14,0.4623751956912267
15,21.45191468237442
16,6.524686894756428
17,-1.7225030096677756
18,-0.4296762450139462
2,1, 1, 1, 0,10,30.00,45.00,Tuesday
7,-7.25
8,1526.2141510839877
9,1.0
10,637.6133352894237
11,1.0
12,637.6133352894237
13,1526.2141510839877
14,0.6242786765135082
15,21.515196982953275
16,7.25341075430714
17,-1.1975363120462817
18,-0.213559791378887
2,1, 1, 1, 0,10,45.00,60.00,Tuesday
7,-6.7
8,1627.1474770805795
9,1.0
10,676.6412284283772
11,1.0
12,676.6412284283772
13,1627.1474770805795
14,0.7995580170947514
15,21.67821727690191
16,7.958130583966636
17,-0.6791098175974071
18,-0.006860590161681898
2,1, 1, 1, 0,11, 0.00,15.00,Tuesday
7,-6.275
8,1726.3559791399826
9,1.0
10,715.0112779846514
11,1.0
12,715.0112779846514
13,1726.3559791399826
14,1.0522139612235473
15,23.775192692668
16,8.709423588173764
17,0.07571030477186014
18,0.19463916300059809
2,1, 1, 1, 0,11,15.00,30.00,Tuesday
7,-5.85
8,1823.2698116145473
9,1.0
10,752.5077794605232
11,1.0
12,752.5077794605232
13,1823.2698116145473
14,1.2895545082373424
15,25.70982914142132
16,9.446903686381916
17,0.80850775730039
18,0.3959192770354133
2,1, 1, 1, 0,11,30.00,45.00,Tuesday
7,-5.425
8,1796.527582854471
9,1.0
10,742.5988714321785
11,1.0
12,742.5988714321785
13,1796.527582854471
14,1.414814900463012
15,25.561542075898126
16,9.521824350337056
17,1.0750170143497258
18,0.5832479770568183
2,1, 1, 1, 0,11,45.00,60.00,Tuesday
7,-5.0
8,1757.2302902542625
9,1.0
10,727.8169025450712
11,1.0
12,727.8169025450712
13,1757.2302902542625
14,1.5370733803154602
15,25.331654337674608
16,9.50914939143513
17,1.3036231149127958
18,0.7473435834942136
2,1, 1, 1, 0,12, 0.00,15.00,Tuesday
7,-4.575
8,1688.8915154248735
9,1.0
10,700.3759009170325
11,1.0
12,700.3759009170325
13,1688.8915154248735
14,1.6157718415294587
15,24.58852099600184
16,9.328816831922268
17,1.4564281780546936
18,0.8843277339763959
2,1, 1, 1, 0,12,15.00,30.00,Tuesday
7,-4.15
8,1637.402928242804
9,1.0
10,681.6705029034473
11,1.0
12,681.6705029034473
13,1637.402928242804
14,1.710820113394711
15,24.2575010678536
16,9.250013973297769
17,1.6863873009174313
18,1.0005374434781396
2,1, 1, 1, 0,12,30.00,45.00,Tuesday
7,-3.7249999999999998
8,1436.3325328204419
9,1.0
10,602.01865277251
11,1.0
12,602.01865277251
13,1436.3325328204419
14,1.6217662628635846
15,21.22903746075635
16,8.322722088225305
17,1.3519303069757598
18,1.0808281165619307
2,1, 1, 1, 0,12,45.00,60.00,Tuesday
7,-3.3
8,1172.3264399988607
9,1.0
10,493.55004396206007
11,1.0
12,493.55004396206007
13,1172.3264399988607
14,1.449196936360587
15,17.050005347777707
16,6.929825405128838
17,0.7317669213306317
18,1.1114897607618267
2,1, 1, 1, 0,13, 0.00,15.00,Tuesday
7,-3.0249999999999996
8,965.8676445104285
9,1.0
10,412.335026418112
11,1.0
12,412.335026418112
13,965.8676445104285
14,1.331033757468712
15,14.20462487597434
16,5.843546476653557
17,0.29304536202812417
18,1.101800465741274
2,1, 1, 1, 0,13,15.00,30.00,Tuesday
7,-2.75
8,705.6249663298465
9,1.0
10,305.94037763660148
11,1.0
12,305.94037763660148
13,705.6249663298465
14,1.1093670245305683
15,10.03077064337683
16,4.354303172049413
17,-0.408773519468582
18,1.0535883970073237
2,1, 1, 1, 0,13,30.00,45.00,Tuesday
7,-2.475
8,643.2935934547763
9,1.0
10,281.0763483922329
11,1.0
12,281.0763483922329
13,643.2935934547763
14,1.0943660896066803
15,9.516964798543914
16,4.043530558984003
17,-0.3358487701747208
18,0.9971526684788064
2,1, 1, 1, 0,13,45.00,60.00,Tuesday
7,-2.2
8,582.2666563732777
9,1.0
10,256.7721209415886
11,1.0
12,256.7721209415886
13,582.2666563732777
14,1.065722805619698
15,8.909137767656372
16,3.7678759878384655
17,-0.2427723061712186
18,0.9518111777488585
2,1, 1, 1, 0,14, 0.00,15.00,Tuesday
7,-1.9250000000000003
8,475.0797112458438
9,1.0
10,210.73276284570657
11,1.0
12,210.73276284570657
13,475.0797112458438
14,0.9776928281441731
15,7.360017215063226
16,3.1424275086623085
17,-0.40465345650352449
18,0.9135445518017678
2,1, 1, 1, 0,14,15.00,30.00,Tuesday
7,-1.6500000000000002
8,421.0810450664391
9,1.0
10,189.38488290342594
11,1.0
12,189.38488290342594
13,421.0810450664391
14,0.9613436545793489
15,6.9522542115119789
16,2.8778415984445475
17,-0.3361203541185773
18,0.8819554733264757
2,1, 1, 1, 0,14,30.00,45.00,Tuesday
7,-1.375
8,401.774828289982
9,1.0
10,179.3940297802914
11,1.0
12,179.3940297802914
13,401.774828289982
14,0.9676660605469082
15,7.070799541874999
16,2.8170744418708866
17,-0.1378883163030764
18,0.8583247916128531
2,1, 1, 1, 0,14,45.00,60.00,Tuesday
7,-1.1
8,382.12108825797437
9,1.0
10,169.43349014176136
11,1.0
12,169.43349014176136
13,382.12108825797437
14,0.9726410678444035
15,7.167002139837009
16,2.753978780869886
17,0.05754164213703916
18,0.8422529625106654
2,1, 1, 1, 0,15, 0.00,15.00,Tuesday
7,-1.1
8,401.91385134140628
9,1.0
10,178.15692317953907
11,1.0
12,178.15692317953907
13,401.91385134140628
14,1.016723879716279
15,7.979983583640443
16,2.9043257633619534
17,0.19304860049237505
18,0.8354976874724408
2,1, 1, 1, 0,15,15.00,30.00,Tuesday
7,-1.1
8,377.40659100319177
9,1.0
10,166.40516310952945
11,1.0
12,166.40516310952945
13,377.40659100319177
14,0.9877327973558363
15,7.616197028376695
16,2.732902495965618
17,0.09966083006383997
18,0.8323443614164621
2,1, 1, 1, 0,15,30.00,45.00,Tuesday
7,-1.1
8,317.75596371098598
9,1.0
10,140.8967369711617
11,1.0
12,140.8967369711617
13,317.75596371098598
14,0.9078363541230218
15,6.407656966131571
16,2.310024685817666
17,-0.19143687333291838
18,0.8233299419458511
2,1, 1, 1, 0,15,45.00,60.00,Tuesday
7,-1.1
8,261.0934712331853
9,1.0
10,116.57355796743004
11,1.0
12,116.57355796743004
13,261.0934712331853
14,0.8276167353696727
15,5.194976872503295
16,1.8835040621944473
17,-0.4894972478806494
18,0.8008900452440915
2,1, 1, 1, 0,16, 0.00,15.00,Tuesday
7,-1.1
8,206.91088787927186
9,1.0
10,93.14939272689483
11,1.0
12,93.14939272689483
13,206.91088787927186
14,0.7467554135752438
15,4.133184428798495
16,1.4801655927232674
17,-0.7245198653258171
18,0.7657405521372488
2,1, 1, 1, 0,16,15.00,30.00,Tuesday
7,-1.1
8,128.24394957662509
9,1.0
10,57.94047897402063
11,1.0
12,57.94047897402063
13,128.24394957662509
14,0.5894055072544597
15,1.9958915903904269
16,0.8258947029506771
17,-1.1658229388286828
18,0.7160048546550896
2,1, 1, 1, 0,16,30.00,45.00,Tuesday
7,-1.1
8,99.28426277067597
9,1.0
10,45.38251793443488
11,1.0
12,45.38251793443488
13,99.28426277067597
14,0.5417493977588281
15,1.3796771754394233
16,0.5528585799688699
17,-1.3191198075172679
18,0.6589871437747078
2,1, 1, 1, 0,16,45.00,60.00,Tuesday
7,-1.1
8,69.22193753677786
9,1.0
10,32.02625108222755
11,1.0
12,32.02625108222755
13,69.22193753677786
14,0.4603394420374915
15,0.5026382927417675
16,0.2833941418073209
17,-1.4883607900059133
18,0.6000209927249861
2,1, 1, 1, 0,17, 0.00,15.00,Tuesday
7,-1.1
8,37.939612009912227
9,1.0
10,17.762198626050539
11,1.0
12,17.762198626050539
13,37.939612009912227
14,0.35045269683609489
15,-0.7665324657968857
16,-0.03998020609270725
17,-1.7809427213404093
18,0.5364239200790164
2,1, 1, 1, 0,17,15.00,30.00,Tuesday
7,-1.1
8,0.0
9,0.0
10,0.0
11,0.0
12,0.0
13,0.0
14,0.19363506392681632
15,-2.6111189687520808
16,-0.42234670829634526
17,-2.1029675569454868
18,0.4582896690245935
2,1, 1, 1, 0,17,30.00,45.00,Tuesday
7,-1.1
8,0.0
9,0.0
10,0.0
11,0.0
12,0.0
13,0.0
14,0.15731550955286967
15,-2.754100111843023
16,-0.5080044985792256
17,-2.1796198097529215
18,0.37548677701089719
2,1, 1, 1, 0,17,45.00,60.00,Tuesday
7,-1.1
8,0.0
9,0.0
10,0.0
11,0.0
12,0.0
13,0.0
14,0.1034732577288191
15,-2.9592825425898847
16,-0.565341176620791
17,-2.259547923976129
18,0.3005114690140049
2,1, 1, 1, 0,18, 0.00,15.00,Tuesday
7,-1.25
8,0.0
9,0.0
10,0.0
11,0.0
12,0.0
13,0.0
14,0.05990836596448496
15,-3.105321515058368
16,-0.6431565066258145
17,-2.3961639988797858
18,0.23919880499201205
2,1, 1, 1, 0,18,15.00,30.00,Tuesday
7,-1.4
8,0.0
9,0.0
10,0.0
11,0.0
12,0.0
13,0.0
14,0.020923102683494789
15,-3.257740334846682
16,-0.7089754622477358
17,-2.5174895507539079
18,0.19056972567116579
2,1, 1, 1, 0,18,30.00,45.00,Tuesday
7,-1.5499999999999999
8,0.0
9,0.0
10,0.0
11,0.0
12,0.0
13,0.0
14,-0.014923526708145325
15,-3.4094613200800887
16,-0.7752600144177677
17,-2.6502685042173654
18,0.15092226958075254
2,1, 1, 1, 0,18,45.00,60.00,Tuesday
7,-1.7
8,0.0
9,0.0
10,0.0
11,0.0
12,0.0
13,0.0
14,-0.04792654183674692
15,-3.5612331591636345
16,-0.8346894864932892
17,-2.769649192120596
18,0.11676120883773697
2,1, 1, 1, 0,19, 0.00,15.00,Tuesday
7,-1.825
8,0.0
9,0.0
10,0.0
11,0.0
12,0.0
13,0.0
14,-0.05083591436181646
15,-3.3921697547461115
16,-0.8553752007550202
17,-2.780483610142767
18,0.08971883827073574
2,1, 1, 1, 0,19,15.00,30.00,Tuesday
7,-1.9500000000000002
8,0.0
9,0.0
10,0.0
11,0.0
12,0.0
13,0.0
14,-0.05449368508646065
15,-3.3070621003787057
16,-0.8729453586305453
17,-2.800274296121131
18,0.07102228182894668
2,1, 1, 1, 0,19,30.00,45.00,Tuesday
7,-2.075
8,0.0
9,0.0
10,0.0
11,0.0
12,0.0
13,0.0
14,-0.06304431490667799
15,-3.375850732730249
16,-0.9039913023996178
17,-2.8796118079104646
18,0.05876064108348415
2,1, 1, 1, 0,19,45.00,60.00,Tuesday
7,-2.2
8,0.0
9,0.0
10,0.0
11,0.0
12,0.0
13,0.0
14,-0.06810758788461585
15,-3.3373287558349076
16,-0.9197578993732805
17,-2.9211842716218827
18,0.049982378307430099
2,1, 1, 1, 0,20, 0.00,15.00,Tuesday
7,-1.9250000000000003
8,0.0
9,0.0
10,0.0
11,0.0
12,0.0
13,0.0
14,-0.05920310699073507
15,-3.031992765453297
16,-0.8432091405217079
17,-2.6892080398334885
18,0.044260022352391809
2,1, 1, 1, 0,20,15.00,30.00,Tuesday
7,-1.6500000000000002
8,0.0
9,0.0
10,0.0
11,0.0
12,0.0
13,0.0
14,-0.046907055221085427
15,-2.729987760030341
16,-0.7673612552293889
17,-2.4508560762722029
18,0.04176926713187714
2,1, 1, 1, 0,20,30.00,45.00,Tuesday
7,-1.375
8,0.0
9,0.0
10,0.0
11,0.0
12,0.0
13,0.0
14,-0.03321142867385403
15,-2.4295650537648587
16,-0.6889383337309596
17,-2.2106534346997934
18,0.042213467164091227
2,1, 1, 1, 0,20,45.00,60.00,Tuesday
7,-1.1
8,0.0
9,0.0
10,0.0
11,0.0
12,0.0
13,0.0
14,-0.01799983348810006
15,-2.1305669613277886
16,-0.6086038616948599
17,-1.9690075711101827
18,0.044993321411472168
2,1, 1, 1, 0,21, 0.00,15.00,Tuesday
7,-1.25
8,0.0
9,0.0
10,0.0
11,0.0
12,0.0
13,0.0
14,-0.04926249526568759
15,-2.428814348008281
16,-0.6778870544588358
17,-2.144941721277405
18,0.04419795835999313
2,1, 1, 1, 0,21,15.00,30.00,Tuesday
7,-1.4
8,0.0
9,0.0
10,0.0
11,0.0
12,0.0
13,0.0
14,-0.08374750489267576
15,-2.654301798905778
16,-0.7374137693406055
17,-2.2957334943333764
18,0.03478025731524065
2,1, 1, 1, 0,21,30.00,45.00,Tuesday
7,-1.5499999999999999
8,0.0
9,0.0
10,0.0
11,0.0
12,0.0
13,0.0
14,-0.1312131047480201
15,-3.0205079160290997
16,-0.8194216465381032
17,-2.4959080854798687
18,0.014566587295048733
2,1, 1, 1, 0,21,45.00,60.00,Tuesday
7,-1.7
8,0.0
9,0.0
10,0.0
11,0.0
12,0.0
13,0.0
14,-0.1835895697955028
15,-3.497235638699485
16,-0.9139323525518535
17,-2.7318895627230974
18,-0.015243104827954636
2,1, 1, 1, 0,22, 0.00,15.00,Tuesday
7,-1.5499999999999999
8,0.0
9,0.0
10,0.0
11,0.0
12,0.0
13,0.0
14,-0.15740981816676634
15,-2.979971436416097
16,-0.8585086648199649
17,-2.501463091502046
18,-0.04085352917254781
2,1, 1, 1, 0,22,15.00,30.00,Tuesday
7,-1.4
8,0.0
9,0.0
10,0.0
11,0.0
12,0.0
13,0.0
14,-0.13924636092259963
15,-2.6296912283522846
16,-0.7924618262834997
17,-2.3025090345482797
18,-0.0540678183562366
2,1, 1, 1, 0,22,30.00,45.00,Tuesday
7,-1.25
8,0.0
9,0.0
10,0.0
11,0.0
12,0.0
13,0.0
14,-0.12430965753059534
15,-2.400553943074811
16,-0.7360831038416222
17,-2.155897215297273
18,-0.05618709628120699
2,1, 1, 1, 0,22,45.00,60.00,Tuesday
7,-1.1
8,0.0
9,0.0
10,0.0
11,0.0
12,0.0
13,0.0
14,-0.10569814419813049
15,-2.1016738616705559
16,-0.6703245592811413
17,-1.9548834359155763
18,-0.051829053340907867
2,1, 1, 1, 0,23, 0.00,15.00,Tuesday
7,-1.25
8,0.0
9,0.0
10,0.0
11,0.0
12,0.0
13,0.0
14,-0.13775622993975637
15,-2.4059391527483626
16,-0.7631682254225325
17,-2.226715900700924
18,-0.050297728284471088
2,1, 1, 1, 0,23,15.00,30.00,Tuesday
7,-1.4
8,0.0
9,0.0
10,0.0
11,0.0
12,0.0
13,0.0
14,-0.1696515303779894
15,-2.7104536799650296
16,-0.8670003463328726
17,-2.508893436314736
18,-0.05755837544993178
2,1, 1, 1, 0,23,30.00,45.00,Tuesday
7,-1.5499999999999999
8,0.0
9,0.0
10,0.0
11,0.0
12,0.0
13,0.0
14,-0.204115056202015
15,-3.0154588068698424
16,-0.9718116435794855
17,-2.7912075247676855
18,-0.07400678935514925
2,1, 1, 1, 0,23,45.00,60.00,Tuesday
7,-1.7
8,0.0
9,0.0
10,0.0
11,0.0
12,0.0
13,0.0
14,-0.242984219801959
15,-3.320853215592495
16,-1.0790444833085076
17,-3.0740191672323364
18,-0.09767104127828878
2,1, 1, 1, 0,24, 0.00,15.00,Tuesday
7,-1.7
8,0.0
9,0.0
10,0.0
11,0.0
12,0.0
13,0.0
14,-0.26179998824276487
15,-3.3742715730888555
16,-1.1143140172039239
17,-3.131185702560515
18,-0.12328155855831508
2,1, 1, 1, 0,24,15.00,30.00,Tuesday
7,-1.7
8,0.0
9,0.0
10,0.0
11,0.0
12,0.0
13,0.0
14,-0.2837978220475749
15,-3.4286783787573738
16,-1.145929563822051
17,-3.1874525484330435
18,-0.1474689130426109
2,1, 1, 1, 0,24,30.00,45.00,Tuesday
7,-1.7
8,0.0
9,0.0
10,0.0
11,0.0
12,0.0
13,0.0
14,-0.3053585884179957
15,-3.482945297282634
16,-1.178292100090971
17,-3.2440046814984386
18,-0.16965937864784928
2,1, 1, 1, 0,24,45.00,60.00,Tuesday
7,-1.7
8,0.0
9,0.0
10,0.0
11,0.0
12,0.0
13,0.0
14,-0.326426637981061
15,-3.5372077447522209
16,-1.2101655934822589
17,-3.3003666022876816
18,-0.19046246126576625
End of Data
 Number of Records Written=        1152
