Program Version,EnergyPlus, Version 9.5.0-de239b2e5f, YMD=2023.02.13 19:58
1,5,Environment Title[],Latitude[deg],Longitude[deg],Time Zone[],Elevation[m]
2,8,Day of Simulation[],Month[],Day of Month[],DST Indicator[1=yes 0=no],Hour[],StartMinute[],EndMinute[],DayType
3,5,Cumulative Day of Simulation[],Month[],Day of Month[],DST Indicator[1=yes 0=no],DayType  ! When Daily Report Variables Requested
4,2,Cumulative Days of Simulation[],Month[]  ! When Monthly Report Variables Requested
5,1,Cumulative Days of Simulation[] ! When Run Period Report Variables Requested
6,1,Calendar Year of Simulation[] ! When Annual Report Variables Requested
7,1,Environment,Site Outdoor Air Drybulb Temperature [C] !TimeStep
8,1,ZONE ONE,Zone Windows Total Transmitted Solar Radiation Rate [W] !TimeStep
9,1,ZN001:WALL001,Surface Outside Face Sunlit Fraction [] !TimeStep
10,1,ZN001:WALL001,Surface Outside Face Incident Solar Radiation Rate per Area [W/m2] !TimeStep
11,1,ZN001:WALL001:WIN001,Surface Outside Face Sunlit Fraction [] !TimeStep
12,1,ZN001:WALL001:WIN001,Surface Outside Face Incident Solar Radiation Rate per Area [W/m2] !TimeStep
13,1,ZN001:WALL001:WIN001,Surface Window Transmitted Solar Radiation Rate [W] !TimeStep
14,1,ZN001:WALL001,Surface Inside Face Temperature [C] !TimeStep
15,1,ZN001:WALL001,Surface Outside Face Temperature [C] !TimeStep
16,1,ZN001:WALL001:WIN001,Surface Inside Face Temperature [C] !TimeStep
17,1,ZN001:WALL001:WIN001,Surface Outside Face Temperature [C] !TimeStep
18,1,ZONE ONE,Zone Mean Air Temperature [C] !TimeStep
End of Data Dictionary
1,RUN PERIOD 1,  41.98, -87.92,  -6.00, 201.00
2,1, 1, 1, 0, 1, 0.00,15.00,Tuesday
7,-4.324999999999999
8,0.0
9,0.0
10,0.0
11,0.0
12,0.0
13,0.0
14,-0.2976490316836855
15,-6.009694977716345
16,-1.4001948062697239
17,-5.509100062350171
18,0.0004808520736080863
2,1, 1, 1, 0, 1,15.00,30.00,Tuesday
7,-6.949999999999999
8,0.0
9,0.0
10,0.0
11,0.0
12,0.0
13,0.0
14,-0.46792735686974049
15,-8.477606122058374
16,-1.990453749106166
17,-7.623770749861421
18,-0.07578212360817828
2,1, 1, 1, 0, 1,30.00,45.00,Tuesday
7,-9.575
8,0.0
9,0.0
10,0.0
11,0.0
12,0.0
13,0.0
14,-0.6587951337791211
15,-10.954348156531529
16,-2.5794868430439239
17,-9.745149949349809
18,-0.18529958354981017
2,1, 1, 1, 0, 1,45.00,60.00,Tuesday
7,-12.2
8,0.0
9,0.0
10,0.0
11,0.0
12,0.0
13,0.0
14,-0.8658184182015543
15,-13.43754747423553
16,-3.1814692813031799
17,-11.875118418120565
18,-0.31942479344968285
2,1, 1, 1, 0, 2, 0.00,15.00,Tuesday
7,-12.075
8,0.0
9,0.0
10,0.0
11,0.0
12,0.0
13,0.0
14,-0.9128708379666416
15,-13.23941503041782
16,-3.244603486342953
17,-11.733057117755493
18,-0.44157554703125098
2,1, 1, 1, 0, 2,15.00,30.00,Tuesday
7,-11.95
8,0.0
9,0.0
10,0.0
11,0.0
12,0.0
13,0.0
14,-0.9765363122699311
15,-13.06201490369962
16,-3.262800980155589
17,-11.579991327767346
18,-0.5332403803735614
2,1, 1, 1, 0, 2,30.00,45.00,Tuesday
7,-11.825
8,0.0
9,0.0
10,0.0
11,0.0
12,0.0
13,0.0
14,-1.0236556338457279
15,-12.883360664471342
16,-3.2770817251316659
17,-11.426623752701858
18,-0.5978804528891603
2,1, 1, 1, 0, 2,45.00,60.00,Tuesday
7,-11.7
8,0.0
9,0.0
10,0.0
11,0.0
12,0.0
13,0.0
14,-1.0594829472220325
15,-12.704759526059897
16,-3.278878992054274
17,-11.270832888472114
18,-0.6455260015340218
2,1, 1, 1, 0, 3, 0.00,15.00,Tuesday
7,-11.549999999999999
8,0.0
9,0.0
10,0.0
11,0.0
12,0.0
13,0.0
14,-1.0937070095252715
15,-12.581240783533597
16,-3.275604249216144
17,-11.14585415704994
18,-0.6851066974325601
2,1, 1, 1, 0, 3,15.00,30.00,Tuesday
7,-11.399999999999999
8,0.0
9,0.0
10,0.0
11,0.0
12,0.0
13,0.0
14,-1.124291226124753
15,-12.459193815034795
16,-3.2727832873903255
17,-11.013703503861962
18,-0.7215040384743607
2,1, 1, 1, 0, 3,30.00,45.00,Tuesday
7,-11.25
8,0.0
9,0.0
10,0.0
11,0.0
12,0.0
13,0.0
14,-1.1527190505061236
15,-12.338803982444399
16,-3.2682905147252088
17,-10.881105259025162
18,-0.7563405622911341
2,1, 1, 1, 0, 3,45.00,60.00,Tuesday
7,-11.1
8,0.0
9,0.0
10,0.0
11,0.0
12,0.0
13,0.0
14,-1.1815475772216444
15,-12.220173088726203
16,-3.2627972180594044
17,-10.748915893378808
18,-0.790093569123611
2,1, 1, 1, 0, 4, 0.00,15.00,Tuesday
7,-11.1
8,0.0
9,0.0
10,0.0
11,0.0
12,0.0
13,0.0
14,-1.2146174763780265
15,-12.18803710535789
16,-3.2947796127529047
17,-10.755498128368516
18,-0.8236544550580117
2,1, 1, 1, 0, 4,15.00,30.00,Tuesday
7,-11.1
8,0.0
9,0.0
10,0.0
11,0.0
12,0.0
13,0.0
14,-1.2462899994153252
15,-12.157111642109476
16,-3.326215686156104
17,-10.764944682998589
18,-0.857470049690326
2,1, 1, 1, 0, 4,30.00,45.00,Tuesday
7,-11.1
8,0.0
9,0.0
10,0.0
11,0.0
12,0.0
13,0.0
14,-1.2781606561727413
15,-12.127938858690325
16,-3.354214018985772
17,-10.77644288782983
18,-0.8913791794826342
2,1, 1, 1, 0, 4,45.00,60.00,Tuesday
7,-11.1
8,0.0
9,0.0
10,0.0
11,0.0
12,0.0
13,0.0
14,-1.3100836322235168
15,-12.100328880417408
16,-3.384201363760212
17,-10.787632829837833
18,-0.9253169604692704
2,1, 1, 1, 0, 5, 0.00,15.00,Tuesday
7,-10.975
8,0.0
9,0.0
10,0.0
11,0.0
12,0.0
13,0.0
14,-1.335365618902486
15,-11.977917642133141
16,-3.3827276002277815
17,-10.695818231766794
18,-0.9581809680539211
2,1, 1, 1, 0, 5,15.00,30.00,Tuesday
7,-10.85
8,0.0
9,0.0
10,0.0
11,0.0
12,0.0
13,0.0
14,-1.361406353374209
15,-11.855651350333933
16,-3.3821863621691365
17,-10.596334420857773
18,-0.9895523259387064
2,1, 1, 1, 0, 5,30.00,45.00,Tuesday
7,-10.725
8,0.0
9,0.0
10,0.0
11,0.0
12,0.0
13,0.0
14,-1.3864800874522936
15,-11.733329332875135
16,-3.3816094497379938
17,-10.496137569949724
18,-1.0196679147312498
2,1, 1, 1, 0, 5,45.00,60.00,Tuesday
7,-10.6
8,0.0
9,0.0
10,0.0
11,0.0
12,0.0
13,0.0
14,-1.4107989339619176
15,-11.611020985770706
16,-3.38030616636712
17,-10.395739401974027
18,-1.048876213129156
2,1, 1, 1, 0, 6, 0.00,15.00,Tuesday
7,-10.6
8,0.0
9,0.0
10,0.0
11,0.0
12,0.0
13,0.0
14,-1.4435488352434527
15,-11.611709066196557
16,-3.405227714539592
17,-10.395581645490097
18,-1.0787111245925889
2,1, 1, 1, 0, 6,15.00,30.00,Tuesday
7,-10.6
8,0.0
9,0.0
10,0.0
11,0.0
12,0.0
13,0.0
14,-1.4737954216129564
15,-11.61225762093767
16,-3.431957523338383
17,-10.39941577640002
18,-1.1097859361485752
2,1, 1, 1, 0, 6,30.00,45.00,Tuesday
7,-10.6
8,0.0
9,0.0
10,0.0
11,0.0
12,0.0
13,0.0
14,-1.5067143057998068
15,-11.612921439714983
16,-3.4580410125118989
17,-10.40403399310577
18,-1.1420247740936836
2,1, 1, 1, 0, 6,45.00,60.00,Tuesday
7,-10.6
8,0.0
9,0.0
10,0.0
11,0.0
12,0.0
13,0.0
14,-1.538838389539446
15,-11.613504859790244
16,-3.4849814911072487
17,-10.409210960148585
18,-1.1749809975438715
2,1, 1, 1, 0, 7, 0.00,15.00,Tuesday
7,-10.6
8,0.0
9,0.0
10,0.0
11,0.0
12,0.0
13,0.0
14,-1.567812789748733
15,-11.587049881536077
16,-3.51293077363988
17,-10.416876533050982
18,-1.2077437084069536
2,1, 1, 1, 0, 7,15.00,30.00,Tuesday
7,-10.6
8,0.0
9,0.0
10,0.0
11,0.0
12,0.0
13,0.0
14,-1.5979537092471317
15,-11.561994480228992
16,-3.5393810835375918
17,-10.42455569137553
18,-1.2399317985529297
2,1, 1, 1, 0, 7,30.00,45.00,Tuesday
7,-10.6
8,0.0
9,0.0
10,0.0
11,0.0
12,0.0
13,0.0
14,-1.6277557845760645
15,-11.538168722006092
16,-3.5657667602615676
17,-10.432233544045971
18,-1.27163086316206
2,1, 1, 1, 0, 7,45.00,60.00,Tuesday
7,-10.6
8,0.0
9,0.0
10,0.0
11,0.0
12,0.0
13,0.0
14,-1.6572975227812026
15,-11.515539534668474
16,-3.5918141446740607
17,-10.439660841984676
18,-1.303000974852706
2,1, 1, 1, 0, 8, 0.00,15.00,Tuesday
7,-10.45
8,0.0
9,0.0
10,0.0
11,0.0
12,0.0
13,0.0
14,-1.688951894544445
15,-11.468463022611719
16,-3.602171534190063
17,-10.410610771283359
18,-1.3346742860430674
2,1, 1, 1, 0, 8,15.00,30.00,Tuesday
7,-10.3
8,43.92919895502562
9,1.0
10,22.819555959623899
11,1.0
12,22.819555959623899
13,43.92919895502562
14,-1.6204864860807753
15,-9.795955450831494
16,-3.204595979238775
17,-10.027326630682069
18,-1.3536440689550685
2,1, 1, 1, 0, 8,30.00,45.00,Tuesday
7,-10.15
8,217.30754917639187
9,1.0
10,109.75755355442667
11,1.0
12,109.75755355442667
13,217.30754917639187
14,-1.283309780638755
15,-3.442464369666135
16,-1.5304480248545929
17,-8.664906726474669
18,-1.3252967207621714
2,1, 1, 1, 0, 8,45.00,60.00,Tuesday
7,-10.0
8,399.4699535945363
9,1.0
10,195.8764694434918
11,1.0
12,195.8764694434918
13,399.4699535945363
14,-0.8693943883515755
15,3.053329934864813
16,0.2105399047246692
17,-7.332026294714467
18,-1.243591117973462
2,1, 1, 1, 0, 9, 0.00,15.00,Tuesday
7,-9.725
8,585.1489314874541
9,1.0
10,278.97248314719988
11,1.0
12,278.97248314719988
13,585.1489314874541
14,-0.5584946103913238
15,8.237076842453533
16,1.746343511235807
17,-6.163282277110682
18,-1.1175678580930447
2,1, 1, 1, 0, 9,15.00,30.00,Tuesday
7,-9.45
8,784.787199245388
9,1.0
10,364.91995730569456
11,1.0
12,364.91995730569456
13,784.787199245388
14,-0.2207088405048296
15,13.31913067155266
16,3.2786775576719267
17,-5.005542533209621
18,-0.9539830135324078
2,1, 1, 1, 0, 9,30.00,45.00,Tuesday
7,-9.175
8,921.7412871041541
9,1.0
10,420.35879993239237
11,1.0
12,420.35879993239237
13,921.7412871041541
14,0.004872813962750414
15,16.079693409065209
16,4.286324315684169
17,-4.29688780657392
18,-0.7710517220796574
2,1, 1, 1, 0, 9,45.00,60.00,Tuesday
7,-8.9
8,1065.0474005418728
9,1.0
10,478.00138373643099
11,1.0
12,478.00138373643099
13,1065.0474005418728
14,0.27280081645370826
15,19.07570121375058
16,5.302732171709977
17,-3.55870403057952
18,-0.5759049633058709
2,1, 1, 1, 0,10, 0.00,15.00,Tuesday
7,-8.350000000000002
8,1212.3134782022194
9,1.0
10,536.9185644770597
11,1.0
12,536.9185644770597
13,1212.3134782022194
14,0.4784598425192738
15,20.198215288298799
16,6.350347781404707
17,-2.777565512772412
18,-0.3661536764801543
2,1, 1, 1, 0,10,15.00,30.00,Tuesday
7,-7.800000000000001
8,1365.083720287943
9,1.0
10,598.0969199229219
11,1.0
12,598.0969199229219
13,1365.083720287943
14,0.7066485061795953
15,21.45491533308705
16,7.416382930838267
17,-1.9893253929589037
18,-0.1452431430217479
2,1, 1, 1, 0,10,30.00,45.00,Tuesday
7,-7.25
8,1468.1999493442264
9,1.0
10,637.6133352894237
11,1.0
12,637.6133352894237
13,1468.1999493442264
14,0.8696859729582068
15,21.517979631015835
16,8.1634238946408
17,-1.468083679201527
18,0.07343538514711444
2,1, 1, 1, 0,10,45.00,60.00,Tuesday
7,-6.7
8,1569.705828175432
9,1.0
10,676.6412284283772
11,1.0
12,676.6412284283772
13,1569.705828175432
14,1.0459072612088352
15,21.68083577964324
16,8.883602420047624
17,-0.9406458932388659
18,0.2824288618513588
2,1, 1, 1, 0,11, 0.00,15.00,Tuesday
7,-6.275
8,1669.2149873773784
9,1.0
10,715.0112779846514
11,1.0
12,715.0112779846514
13,1669.2149873773784
14,1.2994907690025746
15,23.777864095401815
16,9.633210587803888
17,-0.18161230566477117
18,0.48573357620676957
2,1, 1, 1, 0,11,15.00,30.00,Tuesday
7,-5.85
8,1766.190944948854
9,1.0
10,752.5077794605232
11,1.0
12,752.5077794605232
13,1766.190944948854
14,1.537470852492868
15,25.712469772134616
16,10.368976854218886
17,0.5532737687388476
18,0.6882014740823912
2,1, 1, 1, 0,11,30.00,45.00,Tuesday
7,-5.425
8,1740.4832380327117
9,1.0
10,742.5988714321785
11,1.0
12,742.5988714321785
13,1740.4832380327117
14,1.662274159164288
15,25.56412590318632
16,10.431914877277223
17,0.828986023434652
18,0.8760057950339152
2,1, 1, 1, 0,11,45.00,60.00,Tuesday
7,-5.0
8,1702.0518597121073
9,1.0
10,727.8169025450712
11,1.0
12,727.8169025450712
13,1702.0518597121073
14,1.7838692449514742
15,25.334231691360605
16,10.402507192624512
17,1.0672917680399224
18,1.0399503974613347
2,1, 1, 1, 0,12, 0.00,15.00,Tuesday
7,-4.575
8,1635.6982778457269
9,1.0
10,700.3759009170325
11,1.0
12,700.3759009170325
13,1635.6982778457269
14,1.8616000641419373
15,24.591077187725497
16,10.196593226053779
17,1.2313604206163973
18,1.1762722065043095
2,1, 1, 1, 0,12,15.00,30.00,Tuesday
7,-4.15
8,1584.1822507707826
9,1.0
10,681.6705029034473
11,1.0
12,681.6705029034473
13,1584.1822507707826
14,1.9569093057358714
15,24.260052224759787
16,10.09657364083364
17,1.473909186160654
18,1.2914338474447545
2,1, 1, 1, 0,12,30.00,45.00,Tuesday
7,-3.7249999999999998
8,1386.7884648429923
9,1.0
10,602.01865277251
11,1.0
12,602.01865277251
13,1386.7884648429923
14,1.863283415981788
15,21.231501093328065
16,9.130922885790995
17,1.1609183766167349
18,1.3704440776684704
2,1, 1, 1, 0,12,45.00,60.00,Tuesday
7,-3.3
8,1130.2896420139664
9,1.0
10,493.55004396206007
11,1.0
12,493.55004396206007
13,1130.2896420139664
14,1.6890158565072187
15,17.052395955075274
16,7.67883057460574
17,0.563888065206811
18,1.398838160925458
2,1, 1, 1, 0,13, 0.00,15.00,Tuesday
7,-3.0249999999999996
8,926.9697700398867
9,1.0
10,412.335026418112
11,1.0
12,412.335026418112
13,926.9697700398867
14,1.5734156955968464
15,14.206947457155219
16,6.549037476955391
17,0.1475347854187703
18,1.3838397608434828
2,1, 1, 1, 0,13,15.00,30.00,Tuesday
7,-2.75
8,673.6692877186736
9,1.0
10,305.94037763660148
11,1.0
12,305.94037763660148
13,673.6692877186736
14,1.3474939693772917
15,10.032870338511329
16,5.0025682057504359
17,-0.5299790229889823
18,1.3292060194021212
2,1, 1, 1, 0,13,30.00,45.00,Tuesday
7,-2.475
8,612.4821658219637
9,1.0
10,281.0763483922329
11,1.0
12,281.0763483922329
13,612.4821658219637
14,1.3267060435566252
15,9.518689221585383
16,4.658374614790716
17,-0.44496444741008647
18,1.2671523505337579
2,1, 1, 1, 0,13,45.00,60.00,Tuesday
7,-2.2
8,552.552520277972
9,1.0
10,256.7721209415886
11,1.0
12,256.7721209415886
13,552.552520277972
14,1.2982653728659222
15,8.911670378811055
16,4.350950972710621
17,-0.3389748200486338
18,1.2178034971075465
2,1, 1, 1, 0,14, 0.00,15.00,Tuesday
7,-1.9250000000000003
8,449.8411357962977
9,1.0
10,210.73276284570657
11,1.0
12,210.73276284570657
13,449.8411357962977
14,1.2087151124446117
15,7.362352966113835
16,3.682222438948031
17,-0.4895588625452092
18,1.176464977837919
2,1, 1, 1, 0,14,15.00,30.00,Tuesday
7,-1.6500000000000002
8,396.7537665575463
9,1.0
10,189.38488290342594
11,1.0
12,189.38488290342594
13,396.7537665575463
14,1.1895497330778254
15,6.954751779479845
16,3.389292541083762
17,-0.41013677074596446
18,1.1424243561410366
2,1, 1, 1, 0,14,30.00,45.00,Tuesday
7,-1.375
8,379.3266897359249
9,1.0
10,179.3940297802914
11,1.0
12,179.3940297802914
13,379.3266897359249
14,1.196334619623243
15,7.073876872576663
16,3.2995042483327099
17,-0.20657130210673814
18,1.116907263762802
2,1, 1, 1, 0,14,45.00,60.00,Tuesday
7,-1.1
8,361.3465167603399
9,1.0
10,169.43349014176136
11,1.0
12,169.43349014176136
13,361.3465167603399
14,1.1996494432601333
15,7.170115768452963
16,3.2090163559630584
17,-0.005019598017440785
18,1.0993259624539032
2,1, 1, 1, 0,15, 0.00,15.00,Tuesday
7,-1.1
8,379.75098608822659
9,1.0
10,178.15692317953907
11,1.0
12,178.15692317953907
13,379.75098608822659
14,1.2437547511551089
15,7.9833705109202219
16,3.3603122710040909
17,0.1280361448798999
18,1.0913832709824752
2,1, 1, 1, 0,15,15.00,30.00,Tuesday
7,-1.1
8,356.65544888641286
9,1.0
10,166.40516310952945
11,1.0
12,166.40516310952945
13,356.65544888641286
14,1.2142399212745934
15,7.61941255440573
16,3.177959621635978
17,0.033762140244732567
18,1.087183957713579
2,1, 1, 1, 0,15,30.00,45.00,Tuesday
7,-1.1
8,299.30897077907687
9,1.0
10,140.8967369711617
11,1.0
12,140.8967369711617
13,299.30897077907687
14,1.1369152352786927
15,6.410833948250719
16,2.742780317190636
17,-0.25674015663287266
18,1.0752612774813862
2,1, 1, 1, 0,15,45.00,60.00,Tuesday
7,-1.1
8,245.01101588106585
9,1.0
10,116.57355796743004
11,1.0
12,116.57355796743004
13,245.01101588106585
14,1.0541747484530002
15,5.19812294717808
16,2.303438661131622
17,-0.5456276774979187
18,1.0497144963372354
2,1, 1, 1, 0,16, 0.00,15.00,Tuesday
7,-1.1
8,193.3619366811613
9,1.0
10,93.14939272689483
11,1.0
12,93.14939272689483
13,193.3619366811613
14,0.9691440588831085
15,4.133760560577616
16,1.8842060688822926
17,-0.7840706342927888
18,1.0118664572809555
2,1, 1, 1, 0,16,15.00,30.00,Tuesday
7,-1.1
8,119.36636342751545
9,1.0
10,57.94047897402063
11,1.0
12,57.94047897402063
13,119.36636342751545
14,0.8198989911539983
15,2.0034186954159578
16,1.2119820425996296
17,-1.2237970068082405
18,0.9596448208006753
2,1, 1, 1, 0,16,30.00,45.00,Tuesday
7,-1.1
8,91.9639739168048
9,1.0
10,45.38251793443488
11,1.0
12,45.38251793443488
13,91.9639739168048
14,0.7696027143423346
15,1.3840324439822545
16,0.9247207467180942
17,-1.378228216439652
18,0.9002060622041653
2,1, 1, 1, 0,16,45.00,60.00,Tuesday
7,-1.1
8,63.83988587375654
9,1.0
10,32.02625108222755
11,1.0
12,32.02625108222755
13,63.83988587375654
14,0.6877128323316019
15,0.507908650390413
16,0.63469725009071
17,-1.5506478880180339
18,0.8392596033333497
2,1, 1, 1, 0,17, 0.00,15.00,Tuesday
7,-1.1
8,34.880124245395318
9,1.0
10,17.762198626050539
11,1.0
12,17.762198626050539
13,34.880124245395318
14,0.5778128709478102
15,-0.7606240875145337
16,0.29859329852513386
17,-1.8513929513942458
18,0.774181392822955
2,1, 1, 1, 0,17,15.00,30.00,Tuesday
7,-1.1
8,0.0
9,0.0
10,0.0
11,0.0
12,0.0
13,0.0
14,0.42145308100136627
15,-2.604955072753432
16,-0.09949229651317637
17,-2.176583524496948
18,0.694922539304723
2,1, 1, 1, 0,17,30.00,45.00,Tuesday
7,-1.1
8,0.0
9,0.0
10,0.0
11,0.0
12,0.0
13,0.0
14,0.3843290982173517
15,-2.747820778010778
16,-0.18679801606111824
17,-2.2559678234607647
18,0.6112109428301195
2,1, 1, 1, 0,17,45.00,60.00,Tuesday
7,-1.1
8,0.0
9,0.0
10,0.0
11,0.0
12,0.0
13,0.0
14,0.3299428687679423
15,-2.9524849118322908
16,-0.24322527559490937
17,-2.341873969761309
18,0.5357668894721903
2,1, 1, 1, 0,18, 0.00,15.00,Tuesday
7,-1.25
8,0.0
9,0.0
10,0.0
11,0.0
12,0.0
13,0.0
14,0.28601302567983946
15,-3.0985814238428119
16,-0.3167524837383553
17,-2.483282723868797
18,0.4743129528064757
2,1, 1, 1, 0,18,15.00,30.00,Tuesday
7,-1.4
8,0.0
9,0.0
10,0.0
11,0.0
12,0.0
13,0.0
14,0.2468116099678143
15,-3.250985353656202
16,-0.377760031707453
17,-2.6096475235113987
18,0.4257134414392841
2,1, 1, 1, 0,18,30.00,45.00,Tuesday
7,-1.5499999999999999
8,0.0
9,0.0
10,0.0
11,0.0
12,0.0
13,0.0
14,0.2108691876606196
15,-3.4026999166010527
16,-0.43734303719526226
17,-2.7413564402783665
18,0.38613390734769145
2,1, 1, 1, 0,18,45.00,60.00,Tuesday
7,-1.7
8,0.0
9,0.0
10,0.0
11,0.0
12,0.0
13,0.0
14,0.17775241783855928
15,-3.554466693067556
16,-0.49385375897753649
17,-2.8721729109717559
18,0.35206559229569869
2,1, 1, 1, 0,19, 0.00,15.00,Tuesday
7,-1.825
8,0.0
9,0.0
10,0.0
11,0.0
12,0.0
13,0.0
14,0.17458527545650308
15,-3.386167910748734
16,-0.5136709864682985
17,-2.874604627795293
18,0.3250941247142335
2,1, 1, 1, 0,19,15.00,30.00,Tuesday
7,-1.9500000000000002
8,0.0
9,0.0
10,0.0
11,0.0
12,0.0
13,0.0
14,0.17060991927755193
15,-3.3017240353263657
16,-0.5292355832855265
17,-2.8887296301542166
18,0.3064364932513126
2,1, 1, 1, 0,19,30.00,45.00,Tuesday
7,-2.075
8,0.0
9,0.0
10,0.0
11,0.0
12,0.0
13,0.0
14,0.161824572709774
15,-3.3706779964382775
16,-0.5559921856113306
17,-2.9694346795791946
18,0.29420892680215407
2,1, 1, 1, 0,19,45.00,60.00,Tuesday
7,-2.2
8,0.0
9,0.0
10,0.0
11,0.0
12,0.0
13,0.0
14,0.15551777589691344
15,-3.3327597881350567
16,-0.5684691276497915
17,-3.0061998963593625
18,0.28536175911990699
2,1, 1, 1, 0,20, 0.00,15.00,Tuesday
7,-1.9250000000000003
8,0.0
9,0.0
10,0.0
11,0.0
12,0.0
13,0.0
14,0.16497008235395117
15,-3.0275382265748336
16,-0.5066386147489084
17,-2.761493245678139
18,0.2794093880695303
2,1, 1, 1, 0,20,15.00,30.00,Tuesday
7,-1.6500000000000002
8,0.0
9,0.0
10,0.0
11,0.0
12,0.0
13,0.0
14,0.17664742685563837
15,-2.7257350446341017
16,-0.4439192086136359
17,-2.512237934630093
18,0.2765129494559134
2,1, 1, 1, 0,20,30.00,45.00,Tuesday
7,-1.375
8,0.0
9,0.0
10,0.0
11,0.0
12,0.0
13,0.0
14,0.18961202145833026
15,-2.425454382634865
16,-0.37906556915754666
17,-2.261764932851065
18,0.27637456629480586
2,1, 1, 1, 0,20,45.00,60.00,Tuesday
7,-1.1
8,0.0
9,0.0
10,0.0
11,0.0
12,0.0
13,0.0
14,0.20400739422493995
15,-2.1265934823009928
16,-0.3125449840414376
17,-2.010283902182948
18,0.27842331468769829
2,1, 1, 1, 0,21, 0.00,15.00,Tuesday
7,-1.25
8,0.0
9,0.0
10,0.0
11,0.0
12,0.0
13,0.0
14,0.17263965707797539
15,-2.424122713939098
16,-0.36698670700877758
17,-2.2075057999278444
18,0.27697924343644356
2,1, 1, 1, 0,21,15.00,30.00,Tuesday
7,-1.4
8,0.0
9,0.0
10,0.0
11,0.0
12,0.0
13,0.0
14,0.1381918349823432
15,-2.64926491895332
16,-0.4235757282644954
17,-2.3586451760407955
18,0.2670158311643694
2,1, 1, 1, 0,21,30.00,45.00,Tuesday
7,-1.5499999999999999
8,0.0
9,0.0
10,0.0
11,0.0
12,0.0
13,0.0
14,0.09086040647777417
15,-3.0146308581106515
16,-0.4959939307880177
17,-2.580868374561078
18,0.24646212909100408
2,1, 1, 1, 0,21,45.00,60.00,Tuesday
7,-1.7
8,0.0
9,0.0
10,0.0
11,0.0
12,0.0
13,0.0
14,0.038528896487871017
15,-3.4904134406607949
16,-0.5851667401207124
17,-2.8266940514674276
18,0.21644445436437546
2,1, 1, 1, 0,22, 0.00,15.00,Tuesday
7,-1.5499999999999999
8,0.0
9,0.0
10,0.0
11,0.0
12,0.0
13,0.0
14,0.06399763731446272
15,-2.9743023063079927
16,-0.5432210463220031
17,-2.572085477229166
18,0.19055806471443446
2,1, 1, 1, 0,22,15.00,30.00,Tuesday
7,-1.4
8,0.0
9,0.0
10,0.0
11,0.0
12,0.0
13,0.0
14,0.08128492841282324
15,-2.6247876171524937
16,-0.48672150582149245
17,-2.359386454023138
18,0.17695264723171484
2,1, 1, 1, 0,22,30.00,45.00,Tuesday
7,-1.25
8,0.0
9,0.0
10,0.0
11,0.0
12,0.0
13,0.0
14,0.09537511488678698
15,-2.395996253947873
16,-0.43885412469285259
17,-2.2051276060992679
18,0.17435252964357438
2,1, 1, 1, 0,22,45.00,60.00,Tuesday
7,-1.1
8,0.0
9,0.0
10,0.0
11,0.0
12,0.0
13,0.0
14,0.11311587596959139
15,-2.0977537517029747
16,-0.38283132154913349
17,-1.9925889709088552
18,0.17814474966267225
2,1, 1, 1, 0,23, 0.00,15.00,Tuesday
7,-1.25
8,0.0
9,0.0
10,0.0
11,0.0
12,0.0
13,0.0
14,0.08116991875042203
15,-2.4019036622162339
16,-0.45840548269245576
17,-2.2765727324053275
18,0.17918528693761924
2,1, 1, 1, 0,23,15.00,30.00,Tuesday
7,-1.4
8,0.0
9,0.0
10,0.0
11,0.0
12,0.0
13,0.0
14,0.04948610057767129
15,-2.7064194004860169
16,-0.5474613738502399
17,-2.568724380335766
18,0.17164539107777267
2,1, 1, 1, 0,23,30.00,45.00,Tuesday
7,-1.5499999999999999
8,0.0
9,0.0
10,0.0
11,0.0
12,0.0
13,0.0
14,0.01518580340560509
15,-3.0114262268969864
16,-0.6376502548417307
17,-2.8608791932381338
18,0.15516929026925906
2,1, 1, 1, 0,23,45.00,60.00,Tuesday
7,-1.7
8,0.0
9,0.0
10,0.0
11,0.0
12,0.0
13,0.0
14,-0.023455388080521223
15,-3.3168146830440139
16,-0.7304241874668378
17,-3.1533920476848609
18,0.13170059024318449
2,1, 1, 1, 0,24, 0.00,15.00,Tuesday
7,-1.7
8,0.0
9,0.0
10,0.0
11,0.0
12,0.0
13,0.0
14,-0.042355689002340577
15,-3.370250401325329
16,-0.7645715385903031
17,-3.2107034852512017
18,0.1063199989887523
2,1, 1, 1, 0,24,15.00,30.00,Tuesday
7,-1.7
8,0.0
9,0.0
10,0.0
11,0.0
12,0.0
13,0.0
14,-0.06440620151272823
15,-3.4246562101581059
16,-0.7941418569412235
17,-3.2682041696524495
18,0.08229612123238067
2,1, 1, 1, 0,24,30.00,45.00,Tuesday
7,-1.7
8,0.0
9,0.0
10,0.0
11,0.0
12,0.0
13,0.0
14,-0.08602780086707417
15,-3.4789246224862215
16,-0.8244956658396632
17,-3.3260209919429828
18,0.06018796212733661
2,1, 1, 1, 0,24,45.00,60.00,Tuesday
7,-1.7
8,0.0
9,0.0
10,0.0
11,0.0
12,0.0
13,0.0
14,-0.10717119297465357
15,-3.5331893005679646
16,-0.8543575521409821
17,-3.383681738775408
18,0.039407536650257608
End of Data
 Number of Records Written=        1152
