Program Version,EnergyPlus, Version 9.5.0-de239b2e5f, YMD=2023.02.13 19:58
1,5,Environment Title[],Latitude[deg],Longitude[deg],Time Zone[],Elevation[m]
2,8,Day of Simulation[],Month[],Day of Month[],DST Indicator[1=yes 0=no],Hour[],StartMinute[],EndMinute[],DayType
3,5,Cumulative Day of Simulation[],Month[],Day of Month[],DST Indicator[1=yes 0=no],DayType  ! When Daily Report Variables Requested
4,2,Cumulative Days of Simulation[],Month[]  ! When Monthly Report Variables Requested
5,1,Cumulative Days of Simulation[] ! When Run Period Report Variables Requested
6,1,Calendar Year of Simulation[] ! When Annual Report Variables Requested
7,1,Environment,Site Outdoor Air Drybulb Temperature [C] !TimeStep
8,1,ZONE ONE,Zone Windows Total Transmitted Solar Radiation Rate [W] !TimeStep
9,1,ZN001:WALL001,Surface Outside Face Sunlit Fraction [] !TimeStep
10,1,ZN001:WALL001,Surface Outside Face Incident Solar Radiation Rate per Area [W/m2] !TimeStep
11,1,ZN001:WALL001:WIN001,Surface Outside Face Sunlit Fraction [] !TimeStep
12,1,ZN001:WALL001:WIN001,Surface Outside Face Incident Solar Radiation Rate per Area [W/m2] !TimeStep
13,1,ZN001:WALL001:WIN001,Surface Window Transmitted Solar Radiation Rate [W] !TimeStep
14,1,ZN001:WALL001,Surface Inside Face Temperature [C] !TimeStep
15,1,ZN001:WALL001,Surface Outside Face Temperature [C] !TimeStep
16,1,ZN001:WALL001:WIN001,Surface Inside Face Temperature [C] !TimeStep
17,1,ZN001:WALL001:WIN001,Surface Outside Face Temperature [C] !TimeStep
18,1,ZONE ONE,Zone Mean Air Temperature [C] !TimeStep
End of Data Dictionary
1,RUN PERIOD 1,  41.98, -87.92,  -6.00, 201.00
2,1, 1, 1, 0, 1, 0.00,15.00,Tuesday
7,-4.324999999999999
8,0.0
9,0.0
10,0.0
11,0.0
12,0.0
13,0.0
14,-0.7367879481209122
15,-6.017873055576182
16,-2.2836695987231225
17,-5.200514774119654
18,-0.4557104977666312
2,1, 1, 1, 0, 1,15.00,30.00,Tuesday
7,-6.949999999999999
8,0.0
9,0.0
10,0.0
11,0.0
12,0.0
13,0.0
14,-0.911904121333606
15,-8.485728129954103
16,-3.076720192268567
17,-7.16511082484385
18,-0.5379599503928361
2,1, 1, 1, 0, 1,30.00,45.00,Tuesday
7,-9.575
8,0.0
9,0.0
10,0.0
11,0.0
12,0.0
13,0.0
14,-1.1089446300912505
15,-10.96272369135749
16,-3.8682979266932877
17,-9.136080055048979
18,-0.6568800122637285
2,1, 1, 1, 0, 1,45.00,60.00,Tuesday
7,-12.2
8,0.0
9,0.0
10,0.0
11,0.0
12,0.0
13,0.0
14,-1.3227951720238032
15,-13.44621393575926
16,-4.671950654408818
17,-11.116157697999995
18,-0.8025817585712403
2,1, 1, 1, 0, 2, 0.00,15.00,Tuesday
7,-12.075
8,0.0
9,0.0
10,0.0
11,0.0
12,0.0
13,0.0
14,-1.3744425434950394
15,-13.24833160926199
16,-4.705145586315837
17,-10.986922277896383
18,-0.9341472982292912
2,1, 1, 1, 0, 2,15.00,30.00,Tuesday
7,-11.95
8,0.0
9,0.0
10,0.0
11,0.0
12,0.0
13,0.0
14,-1.4423375822754799
15,-13.070992258903575
16,-4.702778374368279
17,-10.862840483711068
18,-1.0317162206691333
2,1, 1, 1, 0, 2,30.00,45.00,Tuesday
7,-11.825
8,0.0
9,0.0
10,0.0
11,0.0
12,0.0
13,0.0
14,-1.492060553797491
15,-12.892327898706619
16,-4.699067914919908
17,-10.729354541572889
18,-1.0995535455090233
2,1, 1, 1, 0, 2,45.00,60.00,Tuesday
7,-11.7
8,0.0
9,0.0
10,0.0
11,0.0
12,0.0
13,0.0
14,-1.529457634047864
15,-12.713715530535234
16,-4.68345186428013
17,-10.590834420063402
18,-1.1489003125637838
2,1, 1, 1, 0, 3, 0.00,15.00,Tuesday
7,-11.549999999999999
8,0.0
9,0.0
10,0.0
11,0.0
12,0.0
13,0.0
14,-1.5647968418405188
15,-12.590444399091315
16,-4.664055372728285
17,-10.459724667453316
18,-1.1895219877947963
2,1, 1, 1, 0, 3,15.00,30.00,Tuesday
7,-11.399999999999999
8,0.0
9,0.0
10,0.0
11,0.0
12,0.0
13,0.0
14,-1.596212734566334
15,-12.468659844863219
16,-4.642021226015572
17,-10.329306748055501
18,-1.22663823465468
2,1, 1, 1, 0, 3,30.00,45.00,Tuesday
7,-11.25
8,0.0
9,0.0
10,0.0
11,0.0
12,0.0
13,0.0
14,-1.6263300644771313
15,-12.348546248067544
16,-4.617994151077596
17,-10.198974668232495
18,-1.2620935374411533
2,1, 1, 1, 0, 3,45.00,60.00,Tuesday
7,-11.1
8,0.0
9,0.0
10,0.0
11,0.0
12,0.0
13,0.0
14,-1.6547175097637426
15,-12.230166042214404
16,-4.593256331733528
17,-10.069089067829453
18,-1.296242562248817
2,1, 1, 1, 0, 4, 0.00,15.00,Tuesday
7,-11.1
8,0.0
9,0.0
10,0.0
11,0.0
12,0.0
13,0.0
14,-1.688798476014359
15,-12.19780693273642
16,-4.631685999296792
17,-10.085905515735476
18,-1.3303728320218995
2,1, 1, 1, 0, 4,15.00,30.00,Tuesday
7,-11.1
8,0.0
9,0.0
10,0.0
11,0.0
12,0.0
13,0.0
14,-1.721334914393284
15,-12.166625227245316
16,-4.664374237019729
17,-10.109628953355866
18,-1.3649843092494479
2,1, 1, 1, 0, 4,30.00,45.00,Tuesday
7,-11.1
8,0.0
9,0.0
10,0.0
11,0.0
12,0.0
13,0.0
14,-1.7542046725919288
15,-12.137215242086683
16,-4.695809694525508
17,-10.133467052171568
18,-1.3999476899595578
2,1, 1, 1, 0, 4,45.00,60.00,Tuesday
7,-11.1
8,0.0
9,0.0
10,0.0
11,0.0
12,0.0
13,0.0
14,-1.787193948569602
15,-12.109381526714204
16,-4.7270119800459728
17,-10.156747984946492
18,-1.4350287825427144
2,1, 1, 1, 0, 5, 0.00,15.00,Tuesday
7,-10.975
8,0.0
9,0.0
10,0.0
11,0.0
12,0.0
13,0.0
14,-1.8132740138128417
15,-11.986978870696266
16,-4.711949524886791
17,-10.075005087721309
18,-1.4688629190466003
2,1, 1, 1, 0, 5,15.00,30.00,Tuesday
7,-10.85
8,0.0
9,0.0
10,0.0
11,0.0
12,0.0
13,0.0
14,-1.840089419417886
15,-11.86472257707376
16,-4.6989513349184339
17,-9.985802064124642
18,-1.5009616345959883
2,1, 1, 1, 0, 5,30.00,45.00,Tuesday
7,-10.725
8,0.0
9,0.0
10,0.0
11,0.0
12,0.0
13,0.0
14,-1.8658251750474416
15,-11.742405540326665
16,-4.686075769696231
17,-9.895669844190252
18,-1.5316172891059706
2,1, 1, 1, 0, 5,45.00,60.00,Tuesday
7,-10.6
8,0.0
9,0.0
10,0.0
11,0.0
12,0.0
13,0.0
14,-1.8907152849832548
15,-11.62010136586996
16,-4.672490314230231
17,-9.805196357272053
18,-1.5612500424891809
2,1, 1, 1, 0, 6, 0.00,15.00,Tuesday
7,-10.6
8,0.0
9,0.0
10,0.0
11,0.0
12,0.0
13,0.0
14,-1.9242412334677575
15,-11.620810484181189
16,-4.695108140553771
17,-9.807516367704011
18,-1.591570630837318
2,1, 1, 1, 0, 6,15.00,30.00,Tuesday
7,-10.6
8,0.0
9,0.0
10,0.0
11,0.0
12,0.0
13,0.0
14,-1.9562502629280712
15,-11.621372027627287
16,-4.7196396683234529
17,-9.81362929638368
18,-1.6233759497557639
2,1, 1, 1, 0, 6,30.00,45.00,Tuesday
7,-10.6
8,0.0
9,0.0
10,0.0
11,0.0
12,0.0
13,0.0
14,-1.988928174572912
15,-11.622017440331467
16,-4.743962315858653
17,-9.820547823716425
18,-1.656404264727142
2,1, 1, 1, 0, 6,45.00,60.00,Tuesday
7,-10.6
8,0.0
9,0.0
10,0.0
11,0.0
12,0.0
13,0.0
14,-2.0219893099445995
15,-11.622659438658016
16,-4.768553892479758
17,-9.827888723177808
18,-1.6901221166688066
2,1, 1, 1, 0, 7, 0.00,15.00,Tuesday
7,-10.6
8,0.0
9,0.0
10,0.0
11,0.0
12,0.0
13,0.0
14,-2.052809572364002
15,-11.595973798284282
16,-4.801318660379366
17,-9.845539758630082
18,-1.7238838750049009
2,1, 1, 1, 0, 7,15.00,30.00,Tuesday
7,-10.6
8,0.0
9,0.0
10,0.0
11,0.0
12,0.0
13,0.0
14,-2.083843391604245
15,-11.570677457076263
16,-4.829856810214437
17,-9.86405597560099
18,-1.7572465248815719
2,1, 1, 1, 0, 7,30.00,45.00,Tuesday
7,-10.6
8,0.0
9,0.0
10,0.0
11,0.0
12,0.0
13,0.0
14,-2.114672950037216
15,-11.546657741063458
16,-4.857861984636372
17,-9.882349371457167
18,-1.7901526343327814
2,1, 1, 1, 0, 7,45.00,60.00,Tuesday
7,-10.6
8,0.0
9,0.0
10,0.0
11,0.0
12,0.0
13,0.0
14,-2.1442183959752647
15,-11.523839820394573
16,-4.885429792304592
17,-9.900071285146169
18,-1.8225797589073507
2,1, 1, 1, 0, 8, 0.00,15.00,Tuesday
7,-10.45
8,0.0
9,0.0
10,0.0
11,0.0
12,0.0
13,0.0
14,-2.176785600404183
15,-11.477021382695846
16,-4.8830395788355649
17,-9.867966482569955
18,-1.8549940969105259
2,1, 1, 1, 0, 8,15.00,30.00,Tuesday
7,-10.3
8,48.37781979229514
9,1.0
10,22.819555959623899
11,1.0
12,22.819555959623899
13,48.37781979229514
14,-2.1071028037255905
15,-9.804438889970577
16,-4.491929478709665
17,-9.475512400823505
18,-1.8743235616248118
2,1, 1, 1, 0, 8,30.00,45.00,Tuesday
7,-10.15
8,237.88593593245407
9,1.0
10,109.75755355442667
11,1.0
12,109.75755355442667
13,237.88593593245407
14,-1.7630882161354649
15,-3.4516144251872418
16,-2.9019613001269706
17,-8.111793249273717
18,-1.8450977870702324
2,1, 1, 1, 0, 8,45.00,60.00,Tuesday
7,-10.0
8,433.6486066510219
9,1.0
10,195.8764694434918
11,1.0
12,195.8764694434918
13,433.6486066510219
14,-1.3532481381063222
15,3.039379802017511
16,-1.1622400984011848
17,-6.713200845509277
18,-1.7626722246299996
2,1, 1, 1, 0, 9, 0.00,15.00,Tuesday
7,-9.725
8,629.8133241912386
9,1.0
10,278.97248314719988
11,1.0
12,278.97248314719988
13,629.8133241912386
14,-1.0364526704084103
15,8.229961264976085
16,0.39791097419708879
17,-5.494881170708538
18,-1.637831938055926
2,1, 1, 1, 0, 9,15.00,30.00,Tuesday
7,-9.45
8,837.7116854113558
9,1.0
10,364.91995730569456
11,1.0
12,364.91995730569456
13,837.7116854113558
14,-0.6980410220804884
15,13.311523794317325
16,1.9427627926651213
17,-4.281573893636448
18,-1.477010437366929
2,1, 1, 1, 0, 9,30.00,45.00,Tuesday
7,-9.175
8,976.7624830576193
9,1.0
10,420.35879993239237
11,1.0
12,420.35879993239237
13,976.7624830576193
14,-0.4723695530119006
15,16.072612857930218
16,2.9510389790149817
17,-3.5211856846590878
18,-1.2976354642222479
2,1, 1, 1, 0, 9,45.00,60.00,Tuesday
7,-8.9
8,1121.6146084510393
9,1.0
10,478.00138373643099
11,1.0
12,478.00138373643099
13,1121.6146084510393
14,-0.20556690946870369
15,19.06878627386119
16,3.9725608197912267
17,-2.743396938078945
18,-1.1072659740449827
2,1, 1, 1, 0,10, 0.00,15.00,Tuesday
7,-8.350000000000002
8,1270.0269553388162
9,1.0
10,536.9185644770597
11,1.0
12,536.9185644770597
13,1270.0269553388162
14,-0.0013785676750242135
15,20.191926906703804
16,5.009922779270141
17,-1.9652506533145698
18,-0.9019771913937321
2,1, 1, 1, 0,10,15.00,30.00,Tuesday
7,-7.800000000000001
8,1423.952062283466
9,1.0
10,598.0969199229219
11,1.0
12,598.0969199229219
13,1423.952062283466
14,0.22525244166460349
15,21.44904541418428
16,6.063096889164854
17,-1.192393586368894
18,-0.6846188268362043
2,1, 1, 1, 0,10,30.00,45.00,Tuesday
7,-7.25
8,1526.2141510839877
9,1.0
10,637.6133352894237
11,1.0
12,637.6133352894237
13,1526.2141510839877
14,0.38702606982487139
15,21.512533920612534
16,6.788660751511088
17,-0.674193419759888
18,-0.46885449770558038
2,1, 1, 1, 0,10,45.00,60.00,Tuesday
7,-6.7
8,1627.1474770805795
9,1.0
10,676.6412284283772
11,1.0
12,676.6412284283772
13,1627.1474770805795
14,0.5621989693399335
15,21.67571740906982
16,7.491907689329423
17,-0.16242203129309019
18,-0.2625259149834842
2,1, 1, 1, 0,11, 0.00,15.00,Tuesday
7,-6.275
8,1726.3559791399826
9,1.0
10,715.0112779846514
11,1.0
12,715.0112779846514
13,1726.3559791399826
14,0.8150303740005863
15,23.7726719297747
16,8.263622483485449
17,0.602426250567305
18,-0.061047523490141999
2,1, 1, 1, 0,11,15.00,30.00,Tuesday
7,-5.85
8,1823.2698116145473
9,1.0
10,752.5077794605232
11,1.0
12,752.5077794605232
13,1823.2698116145473
14,1.0526243745214177
15,25.70733874681134
16,9.019521664031572
17,1.3463000657502562
18,0.14070636133531815
2,1, 1, 1, 0,11,30.00,45.00,Tuesday
7,-5.425
8,1796.527582854471
9,1.0
10,742.5988714321785
11,1.0
12,742.5988714321785
13,1796.527582854471
14,1.1783660252046405
15,25.559090360383697
16,9.102916183074513
17,1.6010430329977226
18,0.32877414743312585
2,1, 1, 1, 0,11,45.00,60.00,Tuesday
7,-5.0
8,1757.2302902542625
9,1.0
10,727.8169025450712
11,1.0
12,727.8169025450712
13,1757.2302902542625
14,1.3012456386321592
15,25.329206009523518
16,9.099770056976923
17,1.815138590626816
18,0.4936865295669142
2,1, 1, 1, 0,12, 0.00,15.00,Tuesday
7,-4.575
8,1688.8915154248735
9,1.0
10,700.3759009170325
11,1.0
12,700.3759009170325
13,1688.8915154248735
14,1.3806442473888548
15,24.586080439043959
16,8.929552417038451
17,1.9461051553388984
18,0.631492236734744
2,1, 1, 1, 0,12,15.00,30.00,Tuesday
7,-4.15
8,1637.402928242804
9,1.0
10,681.6705029034473
11,1.0
12,681.6705029034473
13,1637.402928242804
14,1.476298983608961
15,24.255057128551529
16,8.863243698740803
17,2.1578822713804586
18,0.7485841994646229
2,1, 1, 1, 0,12,30.00,45.00,Tuesday
7,-3.7249999999999998
8,1436.3325328204419
9,1.0
10,602.01865277251
11,1.0
12,602.01865277251
13,1436.3325328204419
14,1.3880593578863719
15,21.226619904431677
16,7.93767725249495
17,1.7749852687310295
18,0.829576558110081
2,1, 1, 1, 0,12,45.00,60.00,Tuesday
7,-3.3
8,1172.3264399988607
9,1.0
10,493.55004396206007
11,1.0
12,493.55004396206007
13,1172.3264399988607
14,1.2169435721122189
15,17.047598525716834
16,6.544098942264895
17,1.0855771139533773
18,0.8604551341784767
2,1, 1, 1, 0,13, 0.00,15.00,Tuesday
7,-3.0249999999999996
8,965.8676445104285
9,1.0
10,412.335026418112
11,1.0
12,412.335026418112
13,965.8676445104285
14,1.1000024362680375
15,14.202185516640231
16,5.466510450717919
17,0.6047255491231454
18,0.8507549523576824
2,1, 1, 1, 0,13,15.00,30.00,Tuesday
7,-2.75
8,705.6249663298465
9,1.0
10,305.94037763660148
11,1.0
12,305.94037763660148
13,705.6249663298465
14,0.8765722234248969
15,10.028421022125992
16,3.9783194625626949
17,-0.16614730458803707
18,0.8037802562042481
2,1, 1, 1, 0,13,30.00,45.00,Tuesday
7,-2.475
8,643.2935934547763
9,1.0
10,281.0763483922329
11,1.0
12,281.0763483922329
13,643.2935934547763
14,0.863547957579632
15,9.514498563797624
16,3.685524649067702
17,-0.10731922509546621
18,0.7489880136090377
2,1, 1, 1, 0,13,45.00,60.00,Tuesday
7,-2.2
8,582.2666563732777
9,1.0
10,256.7721209415886
11,1.0
12,256.7721209415886
13,582.2666563732777
14,0.8363659341230252
15,8.906525581361413
16,3.4262988250599166
17,-0.034475584255574179
18,0.7051227414746514
2,1, 1, 1, 0,14, 0.00,15.00,Tuesday
7,-1.9250000000000003
8,475.0797112458438
9,1.0
10,210.73276284570657
11,1.0
12,210.73276284570657
13,475.0797112458438
14,0.7486561583618479
15,7.357400763622698
16,2.8134106068441726
17,-0.22624015433257228
18,0.6680589390692456
2,1, 1, 1, 0,14,15.00,30.00,Tuesday
7,-1.6500000000000002
8,421.0810450664391
9,1.0
10,189.38488290342594
11,1.0
12,189.38488290342594
13,421.0810450664391
14,0.7332390970344396
15,6.94949922824077
16,2.564627477472584
17,-0.17454201123518943
18,0.6374411052938684
2,1, 1, 1, 0,14,30.00,45.00,Tuesday
7,-1.375
8,401.774828289982
9,1.0
10,179.3940297802914
11,1.0
12,179.3940297802914
13,401.774828289982
14,0.7404582238810001
15,7.06780745413416
16,2.5212051177285277
17,0.013919595019899589
18,0.6145699972357661
2,1, 1, 1, 0,14,45.00,60.00,Tuesday
7,-1.1
8,382.12108825797437
9,1.0
10,169.43349014176136
11,1.0
12,169.43349014176136
13,382.12108825797437
14,0.7459438000690946
15,7.163922755073829
16,2.475135040564396
17,0.19885421926500158
18,0.5994699224445705
2,1, 1, 1, 0,15, 0.00,15.00,Tuesday
7,-1.1
8,401.91385134140628
9,1.0
10,178.15692317953907
11,1.0
12,178.15692317953907
13,401.91385134140628
14,0.7903799451251656
15,7.976736000036375
16,2.6300970426733558
17,0.3424929999537767
18,0.593849269147204
2,1, 1, 1, 0,15,15.00,30.00,Tuesday
7,-1.1
8,377.40659100319177
9,1.0
10,166.40516310952945
11,1.0
12,166.40516310952945
13,377.40659100319177
14,0.7621337611550374
15,7.612960282681621
16,2.460129695026467
17,0.24472142134334264
18,0.591690419130431
2,1, 1, 1, 0,15,30.00,45.00,Tuesday
7,-1.1
8,317.75596371098598
9,1.0
10,140.8967369711617
11,1.0
12,140.8967369711617
13,317.75596371098598
14,0.6822060640766192
15,6.4043773931121079
16,2.0337126732524668
17,-0.058754895352421957
18,0.5839328432697347
2,1, 1, 1, 0,15,45.00,60.00,Tuesday
7,-1.1
8,261.0934712331853
9,1.0
10,116.57355796743004
11,1.0
12,116.57355796743004
13,261.0934712331853
14,0.6024780771403061
15,5.191638258254479
16,1.603903587394484
17,-0.3694448130265755
18,0.5629936741661407
2,1, 1, 1, 0,16, 0.00,15.00,Tuesday
7,-1.1
8,206.91088787927186
9,1.0
10,93.14939272689483
11,1.0
12,93.14939272689483
13,206.91088787927186
14,0.5232710648957899
15,4.130004628717915
16,1.2025429171300175
17,-0.6185927406907013
18,0.5292918468373244
2,1, 1, 1, 0,16,15.00,30.00,Tuesday
7,-1.1
8,128.24394957662509
9,1.0
10,57.94047897402063
11,1.0
12,57.94047897402063
13,128.24394957662509
14,0.3615606343956401
15,1.987374961144369
16,0.5412126629446448
17,-1.0839663717616759
18,0.48094305510011989
2,1, 1, 1, 0,16,30.00,45.00,Tuesday
7,-1.1
8,99.28426277067597
9,1.0
10,45.38251793443488
11,1.0
12,45.38251793443488
13,99.28426277067597
14,0.31726900341202776
15,1.375490686715899
16,0.2720596298509008
17,-1.2423374660945684
18,0.425174790858279
2,1, 1, 1, 0,16,45.00,60.00,Tuesday
7,-1.1
8,69.22193753677786
9,1.0
10,32.02625108222755
11,1.0
12,32.02625108222755
13,69.22193753677786
14,0.23617054376835676
15,0.49745900022982006
16,0.006608403160726084
17,-1.4210388140634223
18,0.36726041432844
2,1, 1, 1, 0,17, 0.00,15.00,Tuesday
7,-1.1
8,37.939612009912227
9,1.0
10,17.762198626050539
11,1.0
12,17.762198626050539
13,37.939612009912227
14,0.12642958915293879
15,-0.7723217952926913
16,-0.3215499015997807
17,-1.7203070330300535
18,0.3045084066807087
2,1, 1, 1, 0,17,15.00,30.00,Tuesday
7,-1.1
8,0.0
9,0.0
10,0.0
11,0.0
12,0.0
13,0.0
14,-0.030437598561068974
15,-2.617143666629388
16,-0.7098597094743013
17,-2.0570172270130344
18,0.22705218334854675
2,1, 1, 1, 0,17,30.00,45.00,Tuesday
7,-1.1
8,0.0
9,0.0
10,0.0
11,0.0
12,0.0
13,0.0
14,-0.06616677589304365
15,-2.7602969728648847
16,-0.7936135740718555
17,-2.1316950603701345
18,0.14491063144404085
2,1, 1, 1, 0,17,45.00,60.00,Tuesday
7,-1.1
8,0.0
9,0.0
10,0.0
11,0.0
12,0.0
13,0.0
14,-0.11950644107023907
15,-2.9659756671874475
16,-0.8517311253751814
17,-2.2074655250865478
18,0.07011281920143547
2,1, 1, 1, 0,18, 0.00,15.00,Tuesday
7,-1.25
8,0.0
9,0.0
10,0.0
11,0.0
12,0.0
13,0.0
14,-0.16276276220482245
15,-3.111964701657031
16,-0.9334557206667569
17,-2.339681260121438
18,0.008665362288230236
2,1, 1, 1, 0,18,15.00,30.00,Tuesday
7,-1.4
8,0.0
9,0.0
10,0.0
11,0.0
12,0.0
13,0.0
14,-0.20160012708964038
15,-3.264398632133796
16,-1.0052529260220809
17,-2.4626750272266237
18,-0.04017554976447068
2,1, 1, 1, 0,18,30.00,45.00,Tuesday
7,-1.5499999999999999
8,0.0
9,0.0
10,0.0
11,0.0
12,0.0
13,0.0
14,-0.23726648213326083
15,-3.4161246817906609
16,-1.0719577863362702
17,-2.578773761710522
18,-0.08004736362254032
2,1, 1, 1, 0,18,45.00,60.00,Tuesday
7,-1.7
8,0.0
9,0.0
10,0.0
11,0.0
12,0.0
13,0.0
14,-0.2702324749729155
15,-3.5678978287548954
16,-1.1395714597531424
17,-2.706127959007347
18,-0.1143466567817886
2,1, 1, 1, 0,19, 0.00,15.00,Tuesday
7,-1.825
8,0.0
9,0.0
10,0.0
11,0.0
12,0.0
13,0.0
14,-0.27283680382817068
15,-3.398082274758652
16,-1.1581698016780138
17,-2.7165629410522458
18,-0.14145406909498718
2,1, 1, 1, 0,19,15.00,30.00,Tuesday
7,-1.9500000000000002
8,0.0
9,0.0
10,0.0
11,0.0
12,0.0
13,0.0
14,-0.2760931018524723
15,-3.312315078991647
16,-1.1763479550969578
17,-2.7406750255171348
18,-0.16017377629008434
2,1, 1, 1, 0,19,30.00,45.00,Tuesday
7,-2.075
8,0.0
9,0.0
10,0.0
11,0.0
12,0.0
13,0.0
14,-0.2843530947420346
15,-3.3809399001401716
16,-1.213429960459564
17,-2.817271869571357
18,-0.1724273678625675
2,1, 1, 1, 0,19,45.00,60.00,Tuesday
7,-2.2
8,0.0
9,0.0
10,0.0
11,0.0
12,0.0
13,0.0
14,-0.289146780136175
15,-3.3418237665245926
16,-1.2325298063958599
17,-2.861335578754222
18,-0.18117369605408596
2,1, 1, 1, 0,20, 0.00,15.00,Tuesday
7,-1.9250000000000003
8,0.0
9,0.0
10,0.0
11,0.0
12,0.0
13,0.0
14,-0.2793748824764663
15,-3.036325586105812
16,-1.1430637794211407
17,-2.6401461968511059
18,-0.18664251252378667
2,1, 1, 1, 0,20,15.00,30.00,Tuesday
7,-1.6500000000000002
8,0.0
9,0.0
10,0.0
11,0.0
12,0.0
13,0.0
14,-0.2667409014702295
15,-2.734177162245979
16,-1.054728475873958
17,-2.4112454179385738
18,-0.18866321362977424
2,1, 1, 1, 0,20,30.00,45.00,Tuesday
7,-1.375
8,0.0
9,0.0
10,0.0
11,0.0
12,0.0
13,0.0
14,-0.2522975826468109
15,-2.4336028177184927
16,-0.9639272555550633
17,-2.1800648684866248
18,-0.1875872876188942
2,1, 1, 1, 0,20,45.00,60.00,Tuesday
7,-1.1
8,0.0
9,0.0
10,0.0
11,0.0
12,0.0
13,0.0
14,-0.23508682280962396
15,-2.1344633336900817
16,-0.8708418222076944
17,-1.9470099192932367
18,-0.18396634887914296
2,1, 1, 1, 0,21, 0.00,15.00,Tuesday
7,-1.25
8,0.0
9,0.0
10,0.0
11,0.0
12,0.0
13,0.0
14,-0.2672371170965352
15,-2.4335114824136339
16,-0.9494740074143238
17,-2.1134433660524225
18,-0.1839334624345759
2,1, 1, 1, 0,21,15.00,30.00,Tuesday
7,-1.4
8,0.0
9,0.0
10,0.0
11,0.0
12,0.0
13,0.0
14,-0.30165917063581457
15,-2.659242208594395
16,-1.0151004059738398
17,-2.2574402706495677
18,-0.19269030593487333
2,1, 1, 1, 0,21,30.00,45.00,Tuesday
7,-1.5499999999999999
8,0.0
9,0.0
10,0.0
11,0.0
12,0.0
13,0.0
14,-0.34913592745647439
15,-3.0262773105181925
16,-1.1041160005403868
17,-2.446176443524678
18,-0.21243437122146287
2,1, 1, 1, 0,21,45.00,60.00,Tuesday
7,-1.7
8,0.0
9,0.0
10,0.0
11,0.0
12,0.0
13,0.0
14,-0.40148727763557587
15,-3.50392422521039
16,-1.2053625363440688
17,-2.6679583744588628
18,-0.24195170787712409
2,1, 1, 1, 0,22, 0.00,15.00,Tuesday
7,-1.5499999999999999
8,0.0
9,0.0
10,0.0
11,0.0
12,0.0
13,0.0
14,-0.37455991972466698
15,-2.985529613509092
16,-1.1383460540405395
17,-2.456765350477781
18,-0.2672572750669222
2,1, 1, 1, 0,22,15.00,30.00,Tuesday
7,-1.4
8,0.0
9,0.0
10,0.0
11,0.0
12,0.0
13,0.0
14,-0.35541298167305448
15,-2.634496964141602
16,-1.0586254456932239
17,-2.2759892977791198
18,-0.2800159646526953
2,1, 1, 1, 0,22,30.00,45.00,Tuesday
7,-1.25
8,0.0
9,0.0
10,0.0
11,0.0
12,0.0
13,0.0
14,-0.33960075359596056
15,-2.405013020157356
16,-0.9987534968332739
17,-2.1286847563428639
18,-0.28162592948781348
2,1, 1, 1, 0,22,45.00,60.00,Tuesday
7,-1.1
8,0.0
9,0.0
10,0.0
11,0.0
12,0.0
13,0.0
14,-0.3200010013158991
15,-2.1055066638911654
16,-0.9189997650422583
17,-1.9454665391446043
18,-0.2766547172144351
2,1, 1, 1, 0,23, 0.00,15.00,Tuesday
7,-1.25
8,0.0
9,0.0
10,0.0
11,0.0
12,0.0
13,0.0
14,-0.35328002385907078
15,-2.4098996252271025
16,-1.032347352545571
17,-2.197278818612233
18,-0.27465835358507
2,1, 1, 1, 0,23,15.00,30.00,Tuesday
7,-1.4
8,0.0
9,0.0
10,0.0
11,0.0
12,0.0
13,0.0
14,-0.38421616680851458
15,-2.7143476560238066
16,-1.1504302175046633
17,-2.4700753258682655
18,-0.28164583650342497
2,1, 1, 1, 0,23,30.00,45.00,Tuesday
7,-1.5499999999999999
8,0.0
9,0.0
10,0.0
11,0.0
12,0.0
13,0.0
14,-0.4199193897257911
15,-3.0194130512562888
16,-1.2683989205852982
17,-2.7432205416920398
18,-0.29808135079917849
2,1, 1, 1, 0,23,45.00,60.00,Tuesday
7,-1.7
8,0.0
9,0.0
10,0.0
11,0.0
12,0.0
13,0.0
14,-0.45782403653448958
15,-3.32475508304517
16,-1.3891975631544256
17,-3.0171908854712798
18,-0.3218819902554467
2,1, 1, 1, 0,24, 0.00,15.00,Tuesday
7,-1.7
8,0.0
9,0.0
10,0.0
11,0.0
12,0.0
13,0.0
14,-0.4765732057853197
15,-3.378211781399122
16,-1.4252067477067386
17,-3.073887102372055
18,-0.34759305643747998
2,1, 1, 1, 0,24,15.00,30.00,Tuesday
7,-1.7
8,0.0
9,0.0
10,0.0
11,0.0
12,0.0
13,0.0
14,-0.49841728531544035
15,-3.432612358682351
16,-1.4586263457156293
17,-3.1290168900374057
18,-0.3718025148369421
2,1, 1, 1, 0,24,30.00,45.00,Tuesday
7,-1.7
8,0.0
9,0.0
10,0.0
11,0.0
12,0.0
13,0.0
14,-0.519817337385287
15,-3.486876123325117
16,-1.4927502642090645
17,-3.184370368198074
18,-0.3939503416201757
2,1, 1, 1, 0,24,45.00,60.00,Tuesday
7,-1.7
8,0.0
9,0.0
10,0.0
11,0.0
12,0.0
13,0.0
14,-0.5407157732677905
15,-3.541134830020657
16,-1.5263976833089146
17,-3.239500049939352
18,-0.4146699538006146
End of Data
 Number of Records Written=        1152
