Program Version,EnergyPlus, Version 9.5.0-de239b2e5f, YMD=2023.02.13 19:58
1,5,Environment Title[],Latitude[deg],Longitude[deg],Time Zone[],Elevation[m]
2,8,Day of Simulation[],Month[],Day of Month[],DST Indicator[1=yes 0=no],Hour[],StartMinute[],EndMinute[],DayType
3,5,Cumulative Day of Simulation[],Month[],Day of Month[],DST Indicator[1=yes 0=no],DayType  ! When Daily Report Variables Requested
4,2,Cumulative Days of Simulation[],Month[]  ! When Monthly Report Variables Requested
5,1,Cumulative Days of Simulation[] ! When Run Period Report Variables Requested
6,1,Calendar Year of Simulation[] ! When Annual Report Variables Requested
7,1,Environment,Site Outdoor Air Drybulb Temperature [C] !TimeStep
8,1,ZONE ONE,Zone Windows Total Transmitted Solar Radiation Rate [W] !TimeStep
9,1,ZN001:WALL001,Surface Outside Face Sunlit Fraction [] !TimeStep
10,1,ZN001:WALL001,Surface Outside Face Incident Solar Radiation Rate per Area [W/m2] !TimeStep
11,1,ZN001:WALL001:WIN001,Surface Outside Face Sunlit Fraction [] !TimeStep
12,1,ZN001:WALL001:WIN001,Surface Outside Face Incident Solar Radiation Rate per Area [W/m2] !TimeStep
13,1,ZN001:WALL001:WIN001,Surface Window Transmitted Solar Radiation Rate [W] !TimeStep
14,1,ZN001:WALL001,Surface Inside Face Temperature [C] !TimeStep
15,1,ZN001:WALL001,Surface Outside Face Temperature [C] !TimeStep
16,1,ZN001:WALL001:WIN001,Surface Inside Face Temperature [C] !TimeStep
17,1,ZN001:WALL001:WIN001,Surface Outside Face Temperature [C] !TimeStep
18,1,ZONE ONE,Zone Mean Air Temperature [C] !TimeStep
End of Data Dictionary
1,RUN PERIOD 1,  41.98, -87.92,  -6.00, 201.00
2,1, 1, 1, 0, 1, 0.00,15.00,Tuesday
7,-4.324999999999999
8,0.0
9,0.0
10,0.0
11,0.0
12,0.0
13,0.0
14,3.300238314836694
15,-5.943849205643423
16,0.3516800514026386
17,-4.012610237810918
18,3.678508763405231
2,1, 1, 1, 0, 1,15.00,30.00,Tuesday
7,-6.949999999999999
8,0.0
9,0.0
10,0.0
11,0.0
12,0.0
13,0.0
14,3.115941049491972
15,-8.411737928331899
16,-0.5102925055261949
17,-5.910997107925255
18,3.5777949365891037
2,1, 1, 1, 0, 1,30.00,45.00,Tuesday
7,-9.575
8,0.0
9,0.0
10,0.0
11,0.0
12,0.0
13,0.0
14,2.907078627011399
15,-10.887989996346953
16,-1.3764591151540345
17,-7.81543904586897
18,3.440652079277658
2,1, 1, 1, 0, 1,45.00,60.00,Tuesday
7,-12.2
8,0.0
9,0.0
10,0.0
11,0.0
12,0.0
13,0.0
14,2.681679264935099
15,-13.370752165157173
16,-2.2570937621195528
17,-9.728920522525982
18,3.278017938678293
2,1, 1, 1, 0, 2, 0.00,15.00,Tuesday
7,-12.075
8,0.0
9,0.0
10,0.0
11,0.0
12,0.0
13,0.0
14,2.613388302676253
15,-13.17232270811609
16,-2.2836429303791876
17,-9.59934095352196
18,3.132810202489685
2,1, 1, 1, 0, 2,15.00,30.00,Tuesday
7,-11.95
8,0.0
9,0.0
10,0.0
11,0.0
12,0.0
13,0.0
14,2.530447264261872
15,-12.995265789659669
16,-2.2864382631924515
17,-9.488410247644424
18,3.024054939188787
2,1, 1, 1, 0, 2,30.00,45.00,Tuesday
7,-11.825
8,0.0
9,0.0
10,0.0
11,0.0
12,0.0
13,0.0
14,2.4668827941807827
15,-12.816899760842626
16,-2.2864780460213298
17,-9.367756237175286
18,2.945541999868078
2,1, 1, 1, 0, 2,45.00,60.00,Tuesday
7,-11.7
8,0.0
9,0.0
10,0.0
11,0.0
12,0.0
13,0.0
14,2.4158971551134216
15,-12.638611821520792
16,-2.2744976226084647
17,-9.241377925836673
18,2.8847666619405767
2,1, 1, 1, 0, 3, 0.00,15.00,Tuesday
7,-11.549999999999999
8,0.0
9,0.0
10,0.0
11,0.0
12,0.0
13,0.0
14,2.367219314115295
15,-12.513586427481869
16,-2.250240996601974
17,-9.10314886489175
18,2.831783574115921
2,1, 1, 1, 0, 3,15.00,30.00,Tuesday
7,-11.399999999999999
8,0.0
9,0.0
10,0.0
11,0.0
12,0.0
13,0.0
14,2.3221757050575317
15,-12.389977868863872
16,-2.2241402431683356
17,-8.96421586249437
18,2.781658385724853
2,1, 1, 1, 0, 3,30.00,45.00,Tuesday
7,-11.25
8,0.0
9,0.0
10,0.0
11,0.0
12,0.0
13,0.0
14,2.278257937126126
15,-12.267950140250436
16,-2.196354355718995
17,-8.825010743538485
18,2.7328662132188605
2,1, 1, 1, 0, 3,45.00,60.00,Tuesday
7,-11.1
8,0.0
9,0.0
10,0.0
11,0.0
12,0.0
13,0.0
14,2.2350098661995165
15,-12.147560351132029
16,-2.167936776884517
17,-8.686033147054787
18,2.685136563349735
2,1, 1, 1, 0, 4, 0.00,15.00,Tuesday
7,-11.1
8,0.0
9,0.0
10,0.0
11,0.0
12,0.0
13,0.0
14,2.187689315053667
15,-12.117785692935759
16,-2.226891407263679
17,-8.725598973493618
18,2.6370078159267549
2,1, 1, 1, 0, 4,15.00,30.00,Tuesday
7,-11.1
8,0.0
9,0.0
10,0.0
11,0.0
12,0.0
13,0.0
14,2.1406968358168898
15,-12.089177112443528
16,-2.277464183260804
17,-8.771687045470458
18,2.587973384994107
2,1, 1, 1, 0, 4,30.00,45.00,Tuesday
7,-11.1
8,0.0
9,0.0
10,0.0
11,0.0
12,0.0
13,0.0
14,2.0933220487073407
15,-12.062169795749254
16,-2.326706513637646
17,-8.81787592007288
18,2.538285745400685
2,1, 1, 1, 0, 4,45.00,60.00,Tuesday
7,-11.1
8,0.0
9,0.0
10,0.0
11,0.0
12,0.0
13,0.0
14,2.0457315615771827
15,-12.036625113979257
16,-2.3755525711117118
17,-8.863181543720828
18,2.4883302950813199
2,1, 1, 1, 0, 5, 0.00,15.00,Tuesday
7,-10.975
8,0.0
9,0.0
10,0.0
11,0.0
12,0.0
13,0.0
14,2.004106600376228
15,-11.91456733020636
16,-2.3656153966394415
17,-8.789832402621699
18,2.4397083345837338
2,1, 1, 1, 0, 5,15.00,30.00,Tuesday
7,-10.85
8,0.0
9,0.0
10,0.0
11,0.0
12,0.0
13,0.0
14,1.9627803008661387
15,-11.792587833235002
16,-2.3588836908461987
17,-8.709096604407592
18,2.393038358434961
2,1, 1, 1, 0, 5,30.00,45.00,Tuesday
7,-10.725
8,0.0
9,0.0
10,0.0
11,0.0
12,0.0
13,0.0
14,1.922635016853551
15,-11.670581684039878
16,-2.352124823790632
17,-8.627194461750719
18,2.3480260933603036
2,1, 1, 1, 0, 5,45.00,60.00,Tuesday
7,-10.6
8,0.0
9,0.0
10,0.0
11,0.0
12,0.0
13,0.0
14,1.883471888147008
15,-11.548583890422889
16,-2.3445990286680855
17,-8.544860386670507
18,2.3041860380244705
2,1, 1, 1, 0, 6, 0.00,15.00,Tuesday
7,-10.6
8,0.0
9,0.0
10,0.0
11,0.0
12,0.0
13,0.0
14,1.83702339525789
15,-11.549518369602679
16,-2.3754226142467589
17,-8.552332619693403
18,2.2597815077418077
2,1, 1, 1, 0, 6,15.00,30.00,Tuesday
7,-10.6
8,0.0
9,0.0
10,0.0
11,0.0
12,0.0
13,0.0
14,1.7911315030526203
15,-11.550374534622148
16,-2.4132683651145045
17,-8.561525786724758
18,2.2138091661997838
2,1, 1, 1, 0, 6,30.00,45.00,Tuesday
7,-10.6
8,0.0
9,0.0
10,0.0
11,0.0
12,0.0
13,0.0
14,1.7446786691177483
15,-11.551280593531648
16,-2.4469647805805154
17,-8.572743146691323
18,2.1665780971641448
2,1, 1, 1, 0, 6,45.00,60.00,Tuesday
7,-10.6
8,0.0
9,0.0
10,0.0
11,0.0
12,0.0
13,0.0
14,1.6978360552531149
15,-11.552184561583803
16,-2.480703614152276
17,-8.58460117327786
18,2.118718199288899
2,1, 1, 1, 0, 7, 0.00,15.00,Tuesday
7,-10.6
8,0.0
9,0.0
10,0.0
11,0.0
12,0.0
13,0.0
14,1.6529866382810513
15,-11.52760342255699
16,-2.528108058841781
17,-8.623647494329476
18,2.070873332639956
2,1, 1, 1, 0, 7,15.00,30.00,Tuesday
7,-10.6
8,0.0
9,0.0
10,0.0
11,0.0
12,0.0
13,0.0
14,1.6079617424839708
15,-11.504301528892848
16,-2.5731645840014609
17,-8.662950951681069
18,2.023395745646385
2,1, 1, 1, 0, 7,30.00,45.00,Tuesday
7,-10.6
8,0.0
9,0.0
10,0.0
11,0.0
12,0.0
13,0.0
14,1.5631647555213216
15,-11.48218234296613
16,-2.617528212668958
17,-8.701453818387222
18,1.9763096354397019
2,1, 1, 1, 0, 7,45.00,60.00,Tuesday
7,-10.6
8,0.0
9,0.0
10,0.0
11,0.0
12,0.0
13,0.0
14,1.5186265394853654
15,-11.461175340472439
16,-2.6612519012754776
17,-8.738920117317491
18,1.929542068651112
2,1, 1, 1, 0, 8, 0.00,15.00,Tuesday
7,-10.45
8,0.0
9,0.0
10,0.0
11,0.0
12,0.0
13,0.0
14,1.4736028301441635
15,-11.412997240529045
16,-2.6604435011466878
17,-8.687571760921515
18,1.8830656682339544
2,1, 1, 1, 0, 8,15.00,30.00,Tuesday
7,-10.3
8,123.87783879393521
9,1.0
10,22.819555959623899
11,1.0
12,22.819555959623899
13,123.87783879393521
14,1.5455992008252846
15,-9.739718309799896
16,-2.243090600769051
17,-8.260712683182817
18,1.8546358721829666
2,1, 1, 1, 0, 8,30.00,45.00,Tuesday
7,-10.15
8,609.2361052149693
9,1.0
10,109.75755355442667
11,1.0
12,109.75755355442667
13,609.2361052149693
14,1.938135560580696
15,-3.3753773450821868
16,-0.5971759925508309
17,-6.791222019727229
18,1.8930806752929404
2,1, 1, 1, 0, 8,45.00,60.00,Tuesday
7,-10.0
8,1111.172358445356
9,1.0
10,195.8764694434918
11,1.0
12,195.8764694434918
13,1111.172358445356
14,2.4342770550832388
15,3.112780634482092
16,1.1154836935426716
17,-5.33197962674376
18,2.004455409973533
2,1, 1, 1, 0, 9, 0.00,15.00,Tuesday
7,-9.725
8,1614.8145795115179
9,1.0
10,278.97248314719988
11,1.0
12,278.97248314719988
13,1614.8145795115179
14,2.819786094385648
15,8.29142800597796
16,2.8054862119108749
17,-4.037054853312725
18,2.165645474507906
2,1, 1, 1, 0, 9,15.00,30.00,Tuesday
7,-9.45
8,2149.451485223683
9,1.0
10,364.91995730569456
11,1.0
12,364.91995730569456
13,2149.451485223683
14,3.2328569408342915
15,13.372360387208334
16,4.42570618310765
17,-2.7913949327918319
18,2.3696823754861064
2,1, 1, 1, 0, 9,30.00,45.00,Tuesday
7,-9.175
8,2508.346142106506
9,1.0
10,420.35879993239237
11,1.0
12,420.35879993239237
13,2508.346142106506
14,3.526601442754271
15,16.13136202811439
16,5.448216345492199
17,-2.0336837645605785
18,2.5958784367445686
2,1, 1, 1, 0, 9,45.00,60.00,Tuesday
7,-8.9
8,2882.8423826304649
9,1.0
10,478.00138373643099
11,1.0
12,478.00138373643099
13,2882.8423826304649
14,3.8694877569207479
15,19.126849968526288
16,6.4826983805098739
17,-1.258209722460208
18,2.834369318048482
2,1, 1, 1, 0,10, 0.00,15.00,Tuesday
7,-8.350000000000002
8,3267.2031696683186
9,1.0
10,536.9185644770597
11,1.0
12,536.9185644770597
13,3267.2031696683186
14,4.156174023884296
15,20.246111594873413
16,7.504223283983492
17,-0.5453883182700565
18,3.085541752871516
2,1, 1, 1, 0,10,15.00,30.00,Tuesday
7,-7.800000000000001
8,3666.413291120194
9,1.0
10,598.0969199229219
11,1.0
12,598.0969199229219
13,3666.413291120194
14,4.469861552003835
15,21.50030744621361
16,8.5441900330365
17,0.16818750380434722
18,3.3591385260937907
2,1, 1, 1, 0,10,30.00,45.00,Tuesday
7,-7.25
8,3933.0550318077687
9,1.0
10,637.6133352894237
11,1.0
12,637.6133352894237
13,3933.0550318077687
14,4.711774277162499
15,21.561206084498328
16,9.25465209102282
17,0.6218210135747881
18,3.6410167253029659
2,1, 1, 1, 0,10,45.00,60.00,Tuesday
7,-6.7
8,4196.486591460473
9,1.0
10,676.6412284283772
11,1.0
12,676.6412284283772
13,4196.486591460473
14,4.975905320281978
15,21.722340615932539
16,9.9447242789239
17,1.0732820494931162
18,3.919571874727679
2,1, 1, 1, 0,11, 0.00,15.00,Tuesday
7,-6.275
8,4455.537253102586
9,1.0
10,715.0112779846514
11,1.0
12,715.0112779846514
13,4455.537253102586
14,5.317578245177621
15,23.820076802170534
16,10.745359441070491
17,1.8274486260471577
18,4.198226145517751
2,1, 1, 1, 0,11,15.00,30.00,Tuesday
7,-5.85
8,4708.589163533651
9,1.0
10,752.5077794605232
11,1.0
12,752.5077794605232
13,4708.589163533651
14,5.647783272156562
15,25.755371522797739
16,11.529562775335421
17,2.5635120827176935
18,4.481769327420673
2,1, 1, 1, 0,11,30.00,45.00,Tuesday
7,-5.425
8,4641.071437787818
9,1.0
10,742.5988714321785
11,1.0
12,742.5988714321785
13,4641.071437787818
14,5.843250431294712
15,25.60742976188932
16,11.674533092067464
17,2.8194768673457135
18,4.7520705412916
2,1, 1, 1, 0,11,45.00,60.00,Tuesday
7,-5.0
8,4540.491218891129
9,1.0
10,727.8169025450712
11,1.0
12,727.8169025450712
13,4540.491218891129
14,6.034446797973205
15,25.378391441396429
16,11.734710394644026
17,3.0350268286294979
18,4.995780876554048
2,1, 1, 1, 0,12, 0.00,15.00,Tuesday
7,-4.575
8,4364.563258174008
9,1.0
10,700.3759009170325
11,1.0
12,700.3759009170325
13,4364.563258174008
14,6.169103650244875
15,24.635922736277548
16,11.625992198188215
17,3.159828651245334
18,5.205647643588369
2,1, 1, 1, 0,12,15.00,30.00,Tuesday
7,-4.15
8,4231.2947904945499
9,1.0
10,681.6705029034473
11,1.0
12,681.6705029034473
13,4231.2947904945499
14,6.323283815541332
15,24.3055611097598
16,11.634337413363938
17,3.380063745721259
18,5.389571135377214
2,1, 1, 1, 0,12,30.00,45.00,Tuesday
7,-3.7249999999999998
8,3710.7631796802099
9,1.0
10,602.01865277251
11,1.0
12,602.01865277251
13,3710.7631796802099
14,6.243207772744562
15,21.277335082632175
16,10.798007928902962
17,2.9948917557865117
18,5.5254193872650589
2,1, 1, 1, 0,12,45.00,60.00,Tuesday
7,-3.3
8,3028.0947855069919
9,1.0
10,493.55004396206007
11,1.0
12,493.55004396206007
13,3028.0947855069919
14,6.05610704296177
15,17.098931401293667
16,9.451114786785923
17,2.2722639781403588
18,5.5887765296871259
2,1, 1, 1, 0,13, 0.00,15.00,Tuesday
7,-3.0249999999999996
8,2493.066776141015
9,1.0
10,412.335026418112
11,1.0
12,412.335026418112
13,2493.066776141015
14,5.924454868256957
15,14.254443548742869
16,8.43904538132631
17,1.7955360126168785
18,5.594575273658006
2,1, 1, 1, 0,13,15.00,30.00,Tuesday
7,-2.75
8,1819.8523785151663
9,1.0
10,305.94037763660148
11,1.0
12,305.94037763660148
13,1819.8523785151663
14,5.634515907768144
15,10.08132900890178
16,6.975740056537859
17,0.999282200050402
18,5.551313653938914
2,1, 1, 1, 0,13,30.00,45.00,Tuesday
7,-2.475
8,1658.3119082134397
9,1.0
10,281.0763483922329
11,1.0
12,281.0763483922329
13,1658.3119082134397
14,5.610705765958797
15,9.56860781881848
16,6.693837364825697
17,1.0533258740491647
18,5.495266954269357
2,1, 1, 1, 0,13,45.00,60.00,Tuesday
7,-2.2
8,1500.1495077213409
9,1.0
10,256.7721209415886
11,1.0
12,256.7721209415886
13,1500.1495077213409
14,5.578455092974331
15,8.961318549580522
16,6.464560516731467
17,1.1272037049621986
18,5.4487404862200619
2,1, 1, 1, 0,14, 0.00,15.00,Tuesday
7,-1.9250000000000003
8,1223.4754548912934
9,1.0
10,210.73276284570657
11,1.0
12,210.73276284570657
13,1223.4754548912934
14,5.45207856673751
15,7.4136814560395829
16,5.846304537536298
17,0.9198165336123907
18,5.408072969444838
2,1, 1, 1, 0,14,15.00,30.00,Tuesday
7,-1.6500000000000002
8,1083.6066169245144
9,1.0
10,189.38488290342594
11,1.0
12,189.38488290342594
13,1083.6066169245144
14,5.422956090710135
15,7.0075259202976849
16,5.6127812523369589
17,0.9843321456505692
18,5.373175299592148
2,1, 1, 1, 0,14,30.00,45.00,Tuesday
7,-1.375
8,1033.9849641949475
9,1.0
10,179.3940297802914
11,1.0
12,179.3940297802914
13,1033.9849641949475
14,5.419971581661132
15,7.129001513273516
16,5.576668456080995
17,1.1759645704725586
18,5.345678915890876
2,1, 1, 1, 0,14,45.00,60.00,Tuesday
7,-1.1
8,983.338804801501
9,1.0
10,169.43349014176136
11,1.0
12,169.43349014176136
13,983.338804801501
14,5.4139631841415289
15,7.227177432272972
16,5.536539239115314
17,1.3639443058249299
18,5.325113833253136
2,1, 1, 1, 0,15, 0.00,15.00,Tuesday
7,-1.1
8,1033.916034865693
9,1.0
10,178.15692317953907
11,1.0
12,178.15692317953907
13,1033.916034865693
14,5.469499525342654
15,8.042752944107697
16,5.720626777189466
17,1.5438087091620219
18,5.3141863206751449
2,1, 1, 1, 0,15,15.00,30.00,Tuesday
7,-1.1
8,970.5605862814177
9,1.0
10,166.40516310952945
11,1.0
12,166.40516310952945
13,970.5605862814177
14,5.4258955234503329
15,7.680275771299034
16,5.543720027372331
17,1.4560420044791727
18,5.3066433952733409
2,1, 1, 1, 0,15,30.00,45.00,Tuesday
7,-1.1
8,816.7254110730805
9,1.0
10,140.8967369711617
11,1.0
12,140.8967369711617
13,816.7254110730805
14,5.3184122672676399
15,6.473424768269786
16,5.075764332900576
17,1.1533825954135182
18,5.292763244735903
2,1, 1, 1, 0,15,45.00,60.00,Tuesday
7,-1.1
8,670.7520999739516
9,1.0
10,116.57355796743004
11,1.0
12,116.57355796743004
13,670.7520999739516
14,5.207698892124296
15,5.2615602233680829
16,4.627719293570351
17,0.854943673722687
18,5.263614125979239
2,1, 1, 1, 0,16, 0.00,15.00,Tuesday
7,-1.1
8,531.3242103430646
9,1.0
10,93.14939272689483
11,1.0
12,93.14939272689483
13,531.3242103430646
14,5.105938956608586
15,4.208130489161603
16,4.2412878062337999
17,0.6344560564735957
18,5.217511775797403
2,1, 1, 1, 0,16,15.00,30.00,Tuesday
7,-1.1
8,329.1422650881374
9,1.0
10,57.94047897402063
11,1.0
12,57.94047897402063
13,329.1422650881374
14,4.924769292283621
15,2.081201736042896
16,3.61870901439255
17,0.20746465126080694
18,5.147308009348078
2,1, 1, 1, 0,16,30.00,45.00,Tuesday
7,-1.1
8,254.7322056029721
9,1.0
10,45.38251793443488
11,1.0
12,45.38251793443488
13,254.7322056029721
14,4.856977549658432
15,1.4673898102019337
16,3.390034806493418
17,0.10894245272686476
18,5.062809667256913
2,1, 1, 1, 0,16,45.00,60.00,Tuesday
7,-1.1
8,177.56161520240969
9,1.0
10,32.02625108222755
11,1.0
12,32.02625108222755
13,177.56161520240969
14,4.7508364897965189
15,0.599432320892854
16,3.1552571441206966
17,-0.006378583338573662
18,4.973732049173919
2,1, 1, 1, 0,17, 0.00,15.00,Tuesday
7,-1.1
8,97.31263596887948
9,1.0
10,17.762198626050539
11,1.0
12,17.762198626050539
13,97.31263596887948
14,4.616961749870592
15,-0.6580478208968651
16,2.8453862970674779
17,-0.23782856368188733
18,4.882390396715779
2,1, 1, 1, 0,17,15.00,30.00,Tuesday
7,-1.1
8,0.0
9,0.0
10,0.0
11,0.0
12,0.0
13,0.0
14,4.432441132333222
15,-2.498196398786412
16,2.4267356489455098
17,-0.6057427522445096
18,4.779587857053966
2,1, 1, 1, 0,17,30.00,45.00,Tuesday
7,-1.1
8,0.0
9,0.0
10,0.0
11,0.0
12,0.0
13,0.0
14,4.380096808346945
15,-2.6365561854259456
16,2.3639836580583166
17,-0.6076732494606176
18,4.680228753510747
2,1, 1, 1, 0,17,45.00,60.00,Tuesday
7,-1.1
8,0.0
9,0.0
10,0.0
11,0.0
12,0.0
13,0.0
14,4.312783704920239
15,-2.832479761180248
16,2.3374741256973268
17,-0.5990603026694998
18,4.59754028928448
2,1, 1, 1, 0,18, 0.00,15.00,Tuesday
7,-1.25
8,0.0
9,0.0
10,0.0
11,0.0
12,0.0
13,0.0
14,4.256939776553615
15,-2.9796721574624835
16,2.2378434738585044
17,-0.7167372734753599
18,4.531902362961549
2,1, 1, 1, 0,18,15.00,30.00,Tuesday
7,-1.4
8,0.0
9,0.0
10,0.0
11,0.0
12,0.0
13,0.0
14,4.206265371766267
15,-3.1321030714142275
16,2.155765626696052
17,-0.8370390197028428
18,4.478201571461824
2,1, 1, 1, 0,18,30.00,45.00,Tuesday
7,-1.5499999999999999
8,0.0
9,0.0
10,0.0
11,0.0
12,0.0
13,0.0
14,4.159752338974136
15,-3.2839933836164616
16,2.079811411899186
17,-0.9506405227601817
18,4.43122210158895
2,1, 1, 1, 0,18,45.00,60.00,Tuesday
7,-1.7
8,0.0
9,0.0
10,0.0
11,0.0
12,0.0
13,0.0
14,4.1152259034292089
15,-3.436059554176163
16,2.004298302823031
17,-1.0684693595181898
18,4.387634204893292
2,1, 1, 1, 0,19, 0.00,15.00,Tuesday
7,-1.825
8,0.0
9,0.0
10,0.0
11,0.0
12,0.0
13,0.0
14,4.096703641926024
15,-3.2813185803182525
16,1.9120377690886699
17,-1.2197944269848904
18,4.349052887469989
2,1, 1, 1, 0,19,15.00,30.00,Tuesday
7,-1.9500000000000002
8,0.0
9,0.0
10,0.0
11,0.0
12,0.0
13,0.0
14,4.077252947235725
15,-3.2088399849682727
16,1.835371524264815
17,-1.3589852092170532
18,4.3171626511721989
2,1, 1, 1, 0,19,30.00,45.00,Tuesday
7,-2.075
8,0.0
9,0.0
10,0.0
11,0.0
12,0.0
13,0.0
14,4.052837909287843
15,-3.281133575858711
16,1.7780467692592197
17,-1.466142748717516
18,4.2906949432179319
2,1, 1, 1, 0,19,45.00,60.00,Tuesday
7,-2.2
8,0.0
9,0.0
10,0.0
11,0.0
12,0.0
13,0.0
14,4.031250208387928
15,-3.253855196934689
16,1.7048213060971876
17,-1.601610136826423
18,4.266598694705837
2,1, 1, 1, 0,20, 0.00,15.00,Tuesday
7,-1.9250000000000003
8,0.0
9,0.0
10,0.0
11,0.0
12,0.0
13,0.0
14,4.027280155331933
15,-2.9514489702826349
16,1.7873167654305462
17,-1.429094342570579
18,4.245973555082196
2,1, 1, 1, 0,20,15.00,30.00,Tuesday
7,-1.6500000000000002
8,0.0
9,0.0
10,0.0
11,0.0
12,0.0
13,0.0
14,4.023373794556429
15,-2.6521643015996356
16,1.8629361712042965
17,-1.2377098744931346
18,4.22943683574114
2,1, 1, 1, 0,20,30.00,45.00,Tuesday
7,-1.375
8,0.0
9,0.0
10,0.0
11,0.0
12,0.0
13,0.0
14,4.021396810388937
15,-2.3541866526837404
16,1.933300582097786
17,-1.0313057248544056
18,4.216292115206285
2,1, 1, 1, 0,20,45.00,60.00,Tuesday
7,-1.1
8,0.0
9,0.0
10,0.0
11,0.0
12,0.0
13,0.0
14,4.021311642465438
15,-2.057529801843434
16,2.017105212776073
17,-0.8408069434862
18,4.205720506351359
2,1, 1, 1, 0,21, 0.00,15.00,Tuesday
7,-1.25
8,0.0
9,0.0
10,0.0
11,0.0
12,0.0
13,0.0
14,3.976990326319957
15,-2.3439557615695709
16,1.9674932020975576
17,-0.9005890981351854
18,4.190552520014214
2,1, 1, 1, 0,21,15.00,30.00,Tuesday
7,-1.4
8,0.0
9,0.0
10,0.0
11,0.0
12,0.0
13,0.0
14,3.9338540884438655
15,-2.5633050826755996
16,1.9092317624888438
17,-0.9887117026075316
18,4.165801322622022
2,1, 1, 1, 0,21,30.00,45.00,Tuesday
7,-1.5499999999999999
8,0.0
9,0.0
10,0.0
11,0.0
12,0.0
13,0.0
14,3.8770256651601229
15,-2.914608501108843
16,1.8629899326247142
17,-1.0523081885332886
18,4.130585045519534
2,1, 1, 1, 0,21,45.00,60.00,Tuesday
7,-1.7
8,0.0
9,0.0
10,0.0
11,0.0
12,0.0
13,0.0
14,3.815086734296916
15,-3.3744821852981499
16,1.8221416394807193
17,-1.0921388500673289
18,4.08723172040974
2,1, 1, 1, 0,22, 0.00,15.00,Tuesday
7,-1.5499999999999999
8,0.0
9,0.0
10,0.0
11,0.0
12,0.0
13,0.0
14,3.825018217622677
15,-2.87755025460309
16,1.8075572108945153
17,-1.080958140044686
18,4.049219223144913
2,1, 1, 1, 0,22,15.00,30.00,Tuesday
7,-1.4
8,0.0
9,0.0
10,0.0
11,0.0
12,0.0
13,0.0
14,3.8252049709088569
15,-2.5411502518841995
16,1.82186895575569
17,-1.0198258347358547
18,4.0239353908249779
2,1, 1, 1, 0,22,30.00,45.00,Tuesday
7,-1.25
8,0.0
9,0.0
10,0.0
11,0.0
12,0.0
13,0.0
14,3.822552479865783
15,-2.3182683240192074
16,1.8534716856227079
17,-0.934363642883568
18,4.009384787652149
2,1, 1, 1, 0,22,45.00,60.00,Tuesday
7,-1.1
8,0.0
9,0.0
10,0.0
11,0.0
12,0.0
13,0.0
14,3.824509563914187
15,-2.0306095584042986
16,1.8822236597494567
17,-0.8552521336747532
18,4.000510283065269
2,1, 1, 1, 0,23, 0.00,15.00,Tuesday
7,-1.25
8,0.0
9,0.0
10,0.0
11,0.0
12,0.0
13,0.0
14,3.779100332240653
15,-2.334215893500214
16,1.7573822542983067
17,-1.103695920696282
18,3.986538856483689
2,1, 1, 1, 0,23,15.00,30.00,Tuesday
7,-1.4
8,0.0
9,0.0
10,0.0
11,0.0
12,0.0
13,0.0
14,3.7363164507036088
15,-2.6388135692431677
16,1.624405602787192
17,-1.3699093544433368
18,3.961963742915623
2,1, 1, 1, 0,23,30.00,45.00,Tuesday
7,-1.5499999999999999
8,0.0
9,0.0
10,0.0
11,0.0
12,0.0
13,0.0
14,3.6889852346004829
15,-2.944068320683734
16,1.4899350421405302
17,-1.637864540752787
18,3.9277292462531037
2,1, 1, 1, 0,23,45.00,60.00,Tuesday
7,-1.7
8,0.0
9,0.0
10,0.0
11,0.0
12,0.0
13,0.0
14,3.6376414229841944
15,-3.249669775888302
16,1.3516853045034623
17,-1.908115098440362
18,3.8868357221765867
2,1, 1, 1, 0,24, 0.00,15.00,Tuesday
7,-1.7
8,0.0
9,0.0
10,0.0
11,0.0
12,0.0
13,0.0
14,3.604373372517354
15,-3.303586227147236
16,1.303042071915911
17,-1.9718280546509278
18,3.845423062214414
2,1, 1, 1, 0,24,15.00,30.00,Tuesday
7,-1.7
8,0.0
9,0.0
10,0.0
11,0.0
12,0.0
13,0.0
14,3.566921947254274
15,-3.3582360634201304
16,1.2576827091234009
17,-2.030804498803377
18,3.8066136860233237
2,1, 1, 1, 0,24,30.00,45.00,Tuesday
7,-1.7
8,0.0
9,0.0
10,0.0
11,0.0
12,0.0
13,0.0
14,3.5326083975983337
15,-3.412688215929109
16,1.2115886598052157
17,-2.089721614824839
18,3.770550345616237
2,1, 1, 1, 0,24,45.00,60.00,Tuesday
7,-1.7
8,0.0
9,0.0
10,0.0
11,0.0
12,0.0
13,0.0
14,3.496976308922381
15,-3.4672310852795267
16,1.1668124479830909
17,-2.147965062535036
18,3.7360861432409604
End of Data
 Number of Records Written=        1152
