Program Version,EnergyPlus, Version 9.5.0-de239b2e5f, YMD=2023.02.13 19:58
1,5,Environment Title[],Latitude[deg],Longitude[deg],Time Zone[],Elevation[m]
2,8,Day of Simulation[],Month[],Day of Month[],DST Indicator[1=yes 0=no],Hour[],StartMinute[],EndMinute[],DayType
3,5,Cumulative Day of Simulation[],Month[],Day of Month[],DST Indicator[1=yes 0=no],DayType  ! When Daily Report Variables Requested
4,2,Cumulative Days of Simulation[],Month[]  ! When Monthly Report Variables Requested
5,1,Cumulative Days of Simulation[] ! When Run Period Report Variables Requested
6,1,Calendar Year of Simulation[] ! When Annual Report Variables Requested
7,1,Environment,Site Outdoor Air Drybulb Temperature [C] !TimeStep
8,1,ZONE ONE,Zone Windows Total Transmitted Solar Radiation Rate [W] !TimeStep
9,1,ZN001:WALL001,Surface Outside Face Sunlit Fraction [] !TimeStep
10,1,ZN001:WALL001,Surface Outside Face Incident Solar Radiation Rate per Area [W/m2] !TimeStep
11,1,ZN001:WALL001:WIN001,Surface Outside Face Sunlit Fraction [] !TimeStep
12,1,ZN001:WALL001:WIN001,Surface Outside Face Incident Solar Radiation Rate per Area [W/m2] !TimeStep
13,1,ZN001:WALL001:WIN001,Surface Window Transmitted Solar Radiation Rate [W] !TimeStep
14,1,ZN001:WALL001,Surface Inside Face Temperature [C] !TimeStep
15,1,ZN001:WALL001,Surface Outside Face Temperature [C] !TimeStep
16,1,ZN001:WALL001:WIN001,Surface Inside Face Temperature [C] !TimeStep
17,1,ZN001:WALL001:WIN001,Surface Outside Face Temperature [C] !TimeStep
18,1,ZONE ONE,Zone Mean Air Temperature [C] !TimeStep
End of Data Dictionary
1,RUN PERIOD 1,  41.98, -87.92,  -6.00, 201.00
2,1, 1, 1, 0, 1, 0.00,15.00,Tuesday
7,-4.324999999999999
8,0.0
9,0.0
10,0.0
11,0.0
12,0.0
13,0.0
14,9.343895472320579
15,-5.8338753081991669
16,6.68346162793182
17,-3.9904791487519448
18,9.891010190342076
2,1, 1, 1, 0, 1,15.00,30.00,Tuesday
7,-6.949999999999999
8,0.0
9,0.0
10,0.0
11,0.0
12,0.0
13,0.0
14,9.157119956282294
15,-8.300650599988563
16,6.118983170826937
17,-6.104750298527506
18,9.783742717509656
2,1, 1, 1, 0, 1,30.00,45.00,Tuesday
7,-9.575
8,0.0
9,0.0
10,0.0
11,0.0
12,0.0
13,0.0
14,8.950377689772076
15,-10.77532060856369
16,5.547133280996718
17,-8.22513360869857
18,9.646028169835168
2,1, 1, 1, 0, 1,45.00,60.00,Tuesday
7,-12.2
8,0.0
9,0.0
10,0.0
11,0.0
12,0.0
13,0.0
14,8.728084666580209
15,-13.256641053826773
16,4.959882007517763
17,-10.352877325822647
18,9.48761152935319
2,1, 1, 1, 0, 2, 0.00,15.00,Tuesday
7,-12.075
8,0.0
9,0.0
10,0.0
11,0.0
12,0.0
13,0.0
14,8.650145570279369
15,-13.057117610980008
16,4.8780122696506968
17,-10.186245766004959
18,9.34467921720919
2,1, 1, 1, 0, 2,15.00,30.00,Tuesday
7,-11.95
8,0.0
9,0.0
10,0.0
11,0.0
12,0.0
13,0.0
14,8.55945591000875
15,-12.880248485590885
16,4.831514007627561
17,-10.040128012047035
18,9.233283935592033
2,1, 1, 1, 0, 2,30.00,45.00,Tuesday
7,-11.825
8,0.0
9,0.0
10,0.0
11,0.0
12,0.0
13,0.0
14,8.485733236879165
15,-12.70225656792049
16,4.790813003509129
17,-9.893633464326968
18,9.14746689756836
2,1, 1, 1, 0, 2,45.00,60.00,Tuesday
7,-11.7
8,0.0
9,0.0
10,0.0
11,0.0
12,0.0
13,0.0
14,8.422830575671166
15,-12.524358586507239
16,4.762725168689428
17,-9.744767369890838
18,9.076159603057772
2,1, 1, 1, 0, 3, 0.00,15.00,Tuesday
7,-11.549999999999999
8,0.0
9,0.0
10,0.0
11,0.0
12,0.0
13,0.0
14,8.361485844670109
15,-12.396515903659746
16,4.7428171593661549
17,-9.591769276772311
18,9.01069979078244
2,1, 1, 1, 0, 3,15.00,30.00,Tuesday
7,-11.399999999999999
8,0.0
9,0.0
10,0.0
11,0.0
12,0.0
13,0.0
14,8.30304892303708
15,-12.269963663320102
16,4.724594740743669
17,-9.438498488140056
18,8.947023216712921
2,1, 1, 1, 0, 3,30.00,45.00,Tuesday
7,-11.25
8,0.0
9,0.0
10,0.0
11,0.0
12,0.0
13,0.0
14,8.245332976973695
15,-12.144840553662956
16,4.7080126017364709
17,-9.28491789471866
18,8.884100213640674
2,1, 1, 1, 0, 3,45.00,60.00,Tuesday
7,-11.1
8,0.0
9,0.0
10,0.0
11,0.0
12,0.0
13,0.0
14,8.188071978751605
15,-12.021199742811908
16,4.692035026701603
17,-9.131260239612232
18,8.821905019262197
2,1, 1, 1, 0, 4, 0.00,15.00,Tuesday
7,-11.1
8,0.0
9,0.0
10,0.0
11,0.0
12,0.0
13,0.0
14,8.127016199870598
15,-11.995314149621266
16,4.629084226656346
17,-9.175355289914478
18,8.759599768200209
2,1, 1, 1, 0, 4,15.00,30.00,Tuesday
7,-11.1
8,0.0
9,0.0
10,0.0
11,0.0
12,0.0
13,0.0
14,8.06637952734777
15,-11.970416828320758
16,4.569119205123513
17,-9.217875696821239
18,8.696840144417126
2,1, 1, 1, 0, 4,30.00,45.00,Tuesday
7,-11.1
8,0.0
9,0.0
10,0.0
11,0.0
12,0.0
13,0.0
14,8.005568566698761
15,-11.94693259804556
16,4.5095070273955
17,-9.259254107418656
18,8.633760172177113
2,1, 1, 1, 0, 4,45.00,60.00,Tuesday
7,-11.1
8,0.0
9,0.0
10,0.0
11,0.0
12,0.0
13,0.0
14,7.944702075867246
15,-11.924735213132744
16,4.45009534672522
17,-9.299452466624416
18,8.570597669678936
2,1, 1, 1, 0, 5, 0.00,15.00,Tuesday
7,-10.975
8,0.0
9,0.0
10,0.0
11,0.0
12,0.0
13,0.0
14,7.88937665402576
15,-11.803023176452435
16,4.425486451170968
17,-9.212889874058135
18,8.508580472204948
2,1, 1, 1, 0, 5,15.00,30.00,Tuesday
7,-10.85
8,0.0
9,0.0
10,0.0
11,0.0
12,0.0
13,0.0
14,7.834290223116366
15,-11.681363457903439
16,4.398851940511008
17,-9.118168885348837
18,8.448185806439972
2,1, 1, 1, 0, 5,30.00,45.00,Tuesday
7,-10.725
8,0.0
9,0.0
10,0.0
11,0.0
12,0.0
13,0.0
14,7.780263852736789
15,-11.55968031124297
16,4.37257239826846
17,-9.022648257366939
18,8.38916953366744
2,1, 1, 1, 0, 5,45.00,60.00,Tuesday
7,-10.6
8,0.0
9,0.0
10,0.0
11,0.0
12,0.0
13,0.0
14,7.727112333865891
15,-11.43800644430423
16,4.34713877876203
17,-8.92690967800445
18,8.331148039244985
2,1, 1, 1, 0, 6, 0.00,15.00,Tuesday
7,-10.6
8,0.0
9,0.0
10,0.0
11,0.0
12,0.0
13,0.0
14,7.66728324314462
15,-11.439148851391842
16,4.295394886792792
17,-8.92929210925297
18,8.272536040493142
2,1, 1, 1, 0, 6,15.00,30.00,Tuesday
7,-10.6
8,0.0
9,0.0
10,0.0
11,0.0
12,0.0
13,0.0
14,7.608101050484176
15,-11.440258839039297
16,4.244565842467978
17,-8.938157277385585
18,8.21265572651442
2,1, 1, 1, 0, 6,30.00,45.00,Tuesday
7,-10.6
8,0.0
9,0.0
10,0.0
11,0.0
12,0.0
13,0.0
14,7.548407530190116
15,-11.441409945991117
16,4.19390993066645
17,-8.947547261938894
18,8.151810806619054
2,1, 1, 1, 0, 6,45.00,60.00,Tuesday
7,-10.6
8,0.0
9,0.0
10,0.0
11,0.0
12,0.0
13,0.0
14,7.488443986579437
15,-11.442557879572134
16,4.142913597262407
17,-8.957062039849689
18,8.090519200563167
2,1, 1, 1, 0, 7, 0.00,15.00,Tuesday
7,-10.6
8,0.0
9,0.0
10,0.0
11,0.0
12,0.0
13,0.0
14,7.43033323564022
15,-11.421104126611809
16,4.084815780142378
17,-8.991668482539922
18,8.029419038309664
2,1, 1, 1, 0, 7,15.00,30.00,Tuesday
7,-10.6
8,0.0
9,0.0
10,0.0
11,0.0
12,0.0
13,0.0
14,7.372156491639717
15,-11.40076273555319
16,4.028711900440555
17,-9.026592999317814
18,7.968833923109211
2,1, 1, 1, 0, 7,30.00,45.00,Tuesday
7,-10.6
8,0.0
9,0.0
10,0.0
11,0.0
12,0.0
13,0.0
14,7.314303093044799
15,-11.381460512194363
16,3.973091738415633
17,-9.060603701713149
18,7.908738912332126
2,1, 1, 1, 0, 7,45.00,60.00,Tuesday
7,-10.6
8,0.0
9,0.0
10,0.0
11,0.0
12,0.0
13,0.0
14,7.256771682347636
15,-11.363135526358319
16,3.9180035094263419
17,-9.09355526910997
18,7.849021748984627
2,1, 1, 1, 0, 8, 0.00,15.00,Tuesday
7,-10.45
8,0.0
9,0.0
10,0.0
11,0.0
12,0.0
13,0.0
14,7.198880733379233
15,-11.312709230812278
16,3.887786827526554
17,-9.037962366724856
18,7.78938903333426
2,1, 1, 1, 0, 8,15.00,30.00,Tuesday
7,-10.3
8,215.5879980222353
9,1.0
10,22.819555959623899
11,1.0
12,22.819555959623899
13,215.5879980222353
14,7.2710492622935389
15,-9.638528689217859
16,4.139359253878524
17,-8.73466095741719
18,7.750557347942792
2,1, 1, 1, 0, 8,30.00,45.00,Tuesday
7,-10.15
8,1058.5392312119832
9,1.0
10,109.75755355442667
11,1.0
12,109.75755355442667
13,1058.5392312119832
14,7.698745930313563
15,-3.2600008960557709
16,5.247888516365379
17,-7.740262645516623
18,7.79065710833545
2,1, 1, 1, 0, 8,45.00,60.00,Tuesday
7,-10.0
8,1924.8399544048012
9,1.0
10,195.8764694434918
11,1.0
12,195.8764694434918
13,1924.8399544048012
14,8.234474991546622
15,3.2075995601390017
16,6.4798746650344019
17,-6.7576796352187789
18,7.917808401328838
2,1, 1, 1, 0, 9, 0.00,15.00,Tuesday
7,-9.725
8,2788.1568045040946
9,1.0
10,278.97248314719988
11,1.0
12,278.97248314719988
13,2788.1568045040946
14,8.727223971511532
15,8.391973280495284
16,7.742857519025165
17,-5.882556481273355
18,8.10620995186497
2,1, 1, 1, 0, 9,15.00,30.00,Tuesday
7,-9.45
8,3698.191694964431
9,1.0
10,364.91995730569456
11,1.0
12,364.91995730569456
13,3698.191694964431
14,9.215964483769504
15,13.463897268151598
16,9.09743933448408
17,-4.997994815335687
18,8.34353641902242
2,1, 1, 1, 0, 9,30.00,45.00,Tuesday
7,-9.175
8,4300.2673206835229
9,1.0
10,420.35879993239237
11,1.0
12,420.35879993239237
13,4300.2673206835229
14,9.571269985368998
15,16.220107877628526
16,9.993920835894187
17,-4.4432270010079268
18,8.608128083468737
2,1, 1, 1, 0, 9,45.00,60.00,Tuesday
7,-8.9
8,4925.271017558337
9,1.0
10,478.00138373643099
11,1.0
12,478.00138373643099
13,4925.271017558337
14,9.98593012126566
15,19.213863479593479
16,10.87693515761805
17,-3.877433974710357
18,8.889038112829434
2,1, 1, 1, 0,10, 0.00,15.00,Tuesday
7,-8.350000000000002
8,5563.47927965646
9,1.0
10,536.9185644770597
11,1.0
12,536.9185644770597
13,5563.47927965646
14,10.352148065548745
15,20.326653757642509
16,11.799312020379262
17,-3.2425098805864538
18,9.186754180114614
2,1, 1, 1, 0,10,15.00,30.00,Tuesday
7,-7.800000000000001
8,6223.735720388039
9,1.0
10,598.0969199229219
11,1.0
12,598.0969199229219
13,6223.735720388039
14,10.751396326340539
15,21.57611844664346
16,12.739035006826385
17,-2.604469469683522
18,9.328152797542302
2,1, 1, 1, 0,10,30.00,45.00,Tuesday
7,-7.25
8,6656.871608685562
9,1.0
10,637.6133352894237
11,1.0
12,637.6133352894237
13,6656.871608685562
14,11.026374687965271
15,21.631270798758405
16,13.421513454046135
17,-2.1402232155155618
18,9.601439696135778
2,1, 1, 1, 0,10,45.00,60.00,Tuesday
7,-6.7
8,7083.627635407371
9,1.0
10,676.6412284283772
11,1.0
12,676.6412284283772
13,7083.627635407371
14,11.293551381444571
15,21.787608177925035
16,14.042450003835427
17,-1.6805304505495542
18,9.80415850786395
2,1, 1, 1, 0,11, 0.00,15.00,Tuesday
7,-6.275
8,7502.619881932496
9,1.0
10,715.0112779846514
11,1.0
12,715.0112779846514
13,7502.619881932496
14,11.713805537606975
15,23.887376929023195
16,14.724785432706767
17,-1.0202628679149939
18,10.27158090532654
2,1, 1, 1, 0,11,15.00,30.00,Tuesday
7,-5.85
8,7911.749570952164
9,1.0
10,752.5077794605232
11,1.0
12,752.5077794605232
13,7911.749570952164
14,12.187287772476536
15,25.824629589749848
16,15.4623123701665
17,-0.3710190508757023
18,10.70818222132434
2,1, 1, 1, 0,11,30.00,45.00,Tuesday
7,-5.425
8,7790.156876744835
9,1.0
10,742.5988714321785
11,1.0
12,742.5988714321785
13,7790.156876744835
14,12.479090233113679
15,25.67657023904502
16,15.728792254804603
17,-0.049062575221910268
18,11.114716795010029
2,1, 1, 1, 0,11,45.00,60.00,Tuesday
7,-5.0
8,7616.415097398768
9,1.0
10,727.8169025450712
11,1.0
12,727.8169025450712
13,7616.415097398768
14,12.75719520510614
15,25.448517460587149
16,15.897636531281137
17,0.2455208673018774
18,11.474872807171736
2,1, 1, 1, 0,12, 0.00,15.00,Tuesday
7,-4.575
8,7317.63187899619
9,1.0
10,700.3759009170325
11,1.0
12,700.3759009170325
13,7317.63187899619
14,12.957563709382193
15,24.706699090412898
16,15.925576569916587
17,0.4966978233510986
18,11.784777476872211
2,1, 1, 1, 0,12,15.00,30.00,Tuesday
7,-4.15
8,7096.045470548525
9,1.0
10,681.6705029034473
11,1.0
12,681.6705029034473
13,7096.045470548525
14,13.178023765444183
15,24.37711840886038
16,16.013401439117275
17,0.8072683690747908
18,12.057113150404279
2,1, 1, 1, 0,12,30.00,45.00,Tuesday
7,-3.7249999999999998
8,6229.736928425406
9,1.0
10,602.01865277251
11,1.0
12,602.01865277251
13,6229.736928425406
14,13.092190381474497
15,21.34840693857938
16,15.454976150566268
17,0.7130401542124787
18,12.267338260658495
2,1, 1, 1, 0,12,45.00,60.00,Tuesday
7,-3.3
8,5087.904404183855
9,1.0
10,493.55004396206007
11,1.0
12,493.55004396206007
13,5087.904404183855
14,12.897159853211863
15,17.171461395453457
16,14.46391892699279
17,0.40591682686931565
18,12.382841364962309
2,1, 1, 1, 0,13, 0.00,15.00,Tuesday
7,-3.0249999999999996
8,4201.063393949559
9,1.0
10,412.335026418112
11,1.0
12,412.335026418112
13,4201.063393949559
14,12.762732645269216
15,14.328550903074929
16,13.664947203838893
17,0.21466648178102333
18,12.42211194891213
2,1, 1, 1, 0,13,15.00,30.00,Tuesday
7,-2.75
8,3076.892122430221
9,1.0
10,305.94037763660148
11,1.0
12,305.94037763660148
13,3076.892122430221
14,12.426046277309509
15,10.156238221959664
16,12.510359869790534
17,-0.17593138451610458
18,12.396485209076867
2,1, 1, 1, 0,13,30.00,45.00,Tuesday
7,-2.475
8,2809.0935899127655
9,1.0
10,281.0763483922329
11,1.0
12,281.0763483922329
13,2809.0935899127655
14,12.39668388546499
15,9.644807475037919
16,12.1982737714103
17,-0.02039975850073006
18,12.350487637195938
2,1, 1, 1, 0,13,45.00,60.00,Tuesday
7,-2.2
8,2546.8736709552365
9,1.0
10,256.7721209415886
11,1.0
12,256.7721209415886
13,2546.8736709552365
14,12.357291739494509
15,9.039064074418608
16,12.00008772120134
17,0.16303209167568867
18,12.311270964934515
2,1, 1, 1, 0,14, 0.00,15.00,Tuesday
7,-1.9250000000000003
8,2080.536760270814
9,1.0
10,210.73276284570657
11,1.0
12,210.73276284570657
13,2080.536760270814
14,12.191529350904056
15,7.492451455123283
16,11.524471677472434
17,0.1556605567971019
18,12.274251530909638
2,1, 1, 1, 0,14,15.00,30.00,Tuesday
7,-1.6500000000000002
8,1848.1882299855229
9,1.0
10,189.38488290342594
11,1.0
12,189.38488290342594
13,1848.1882299855229
14,12.153876934101726
15,7.09233407036848
16,11.30271053420529
17,0.31690766962435648
18,12.239222632089153
2,1, 1, 1, 0,14,30.00,45.00,Tuesday
7,-1.375
8,1762.648528253172
9,1.0
10,179.3940297802914
11,1.0
12,179.3940297802914
13,1762.648528253172
14,12.137232200674474
15,7.216720515097481
16,11.253719790400055
17,0.5679063097835524
18,12.208079112084944
2,1, 1, 1, 0,14,45.00,60.00,Tuesday
7,-1.1
8,1676.1315823352277
9,1.0
10,169.43349014176136
11,1.0
12,169.43349014176136
13,1676.1315823352277
14,12.116598199129078
15,7.3179594614169389
16,11.196524508017774
17,0.8178624612526164
18,12.180469886042836
2,1, 1, 1, 0,15, 0.00,15.00,Tuesday
7,-1.1
8,1764.2336451764168
9,1.0
10,178.15692317953907
11,1.0
12,178.15692317953907
13,1764.2336451764168
14,12.181199809673947
15,8.137268583647373
16,11.301838217677244
17,0.9427724464449625
18,12.160946058141697
2,1, 1, 1, 0,15,15.00,30.00,Tuesday
7,-1.1
8,1657.44905719483
9,1.0
10,166.40516310952945
11,1.0
12,166.40516310952945
13,1657.44905719483
14,12.122406880815362
15,7.776321393276665
16,11.185857334075195
17,0.9071630316079791
18,12.143895002833022
2,1, 1, 1, 0,15,30.00,45.00,Tuesday
7,-1.1
8,1397.5312645024297
9,1.0
10,140.8967369711617
11,1.0
12,140.8967369711617
13,1397.5312645024297
14,11.985516834092043
15,6.569981398327879
16,10.857172509284908
17,0.7340042551154511
18,12.117480393778852
2,1, 1, 1, 0,15,45.00,60.00,Tuesday
7,-1.1
8,1150.0543343484979
9,1.0
10,116.57355796743004
11,1.0
12,116.57355796743004
13,1150.0543343484979
14,11.870765860576985
15,5.369647615321896
16,10.523787206853172
17,0.5524625195662338
18,12.069429633782926
2,1, 1, 1, 0,16, 0.00,15.00,Tuesday
7,-1.1
8,912.7487358563033
9,1.0
10,93.14939272689483
11,1.0
12,93.14939272689483
13,912.7487358563033
14,11.749972721190579
15,4.322398739209169
16,10.225746935430607
17,0.4579483342098456
18,12.001090481434132
2,1, 1, 1, 0,16,15.00,30.00,Tuesday
7,-1.1
8,566.636069103818
9,1.0
10,57.94047897402063
11,1.0
12,57.94047897402063
13,566.636069103818
14,11.533651472807792
15,2.204800372013361
16,9.767516695144991
17,0.23707821378474137
18,11.906737823032897
2,1, 1, 1, 0,16,30.00,45.00,Tuesday
7,-1.1
8,439.3280485110057
9,1.0
10,45.38251793443488
11,1.0
12,45.38251793443488
13,439.3280485110057
14,11.444698078227447
15,1.6016817148504444
16,9.551913553063287
17,0.22838041957180622
18,11.801683041760493
2,1, 1, 1, 0,16,45.00,60.00,Tuesday
7,-1.1
8,306.6800834820858
9,1.0
10,32.02625108222755
11,1.0
12,32.02625108222755
13,306.6800834820858
14,11.315431189861139
15,0.747216747114633
16,9.358245245444664
17,0.2207794362864206
18,11.69896325339899
2,1, 1, 1, 0,17, 0.00,15.00,Tuesday
7,-1.1
8,168.21359625367695
9,1.0
10,17.762198626050539
11,1.0
12,17.762198626050539
13,168.21359625367695
14,11.162506538939438
15,-0.49213827484762048
16,9.114969076495072
17,0.10428874593878845
18,11.596557110322065
2,1, 1, 1, 0,17,15.00,30.00,Tuesday
7,-1.1
8,0.0
9,0.0
10,0.0
11,0.0
12,0.0
13,0.0
14,10.958887543834076
15,-2.323702452858293
16,8.795746214681686
17,-0.14019574903750255
18,11.480699190429054
2,1, 1, 1, 0,17,30.00,45.00,Tuesday
7,-1.1
8,0.0
9,0.0
10,0.0
11,0.0
12,0.0
13,0.0
14,10.892453020125345
15,-2.453829463127597
16,8.702501525238745
17,-0.0972630523339717
18,11.367555129131704
2,1, 1, 1, 0,17,45.00,60.00,Tuesday
7,-1.1
8,0.0
9,0.0
10,0.0
11,0.0
12,0.0
13,0.0
14,10.809501763038023
15,-2.634892330753541
16,8.652881046700032
17,-0.04155199963713585
18,11.271918099581283
2,1, 1, 1, 0,18, 0.00,15.00,Tuesday
7,-1.25
8,0.0
9,0.0
10,0.0
11,0.0
12,0.0
13,0.0
14,10.738172001067357
15,-2.7840211753896737
16,8.554975231945548
17,-0.18828934069620119
18,11.194001051593562
2,1, 1, 1, 0,18,15.00,30.00,Tuesday
7,-1.4
8,0.0
9,0.0
10,0.0
11,0.0
12,0.0
13,0.0
14,10.672733150516568
15,-2.936514675866487
16,8.473764507470662
17,-0.3189310778163872
18,11.12776585684348
2,1, 1, 1, 0,18,30.00,45.00,Tuesday
7,-1.5499999999999999
8,0.0
9,0.0
10,0.0
11,0.0
12,0.0
13,0.0
14,10.611529730162579
15,-3.088699289168276
16,8.39514647157614
17,-0.4534066555630716
18,11.067479531932565
2,1, 1, 1, 0,18,45.00,60.00,Tuesday
7,-1.7
8,0.0
9,0.0
10,0.0
11,0.0
12,0.0
13,0.0
14,10.55222786197378
15,-3.241050397926554
16,8.319490759904625
17,-0.5871506241602447
18,11.009776805723819
2,1, 1, 1, 0,19, 0.00,15.00,Tuesday
7,-1.825
8,0.0
9,0.0
10,0.0
11,0.0
12,0.0
13,0.0
14,10.514889434003824
15,-3.1090436063246718
16,8.225203963536274
17,-0.7910045242532533
18,10.956401762079516
2,1, 1, 1, 0,19,15.00,30.00,Tuesday
7,-1.9500000000000002
8,0.0
9,0.0
10,0.0
11,0.0
12,0.0
13,0.0
14,10.478077851359933
15,-3.056418262547414
16,8.146738269645937
17,-0.9782644658660047
18,10.909317399498369
2,1, 1, 1, 0,19,30.00,45.00,Tuesday
7,-2.075
8,0.0
9,0.0
10,0.0
11,0.0
12,0.0
13,0.0
14,10.435476646595367
15,-3.134143723763991
16,8.088137762219958
17,-1.1074445916030982
18,10.8671176494975
2,1, 1, 1, 0,19,45.00,60.00,Tuesday
7,-2.2
8,0.0
9,0.0
10,0.0
11,0.0
12,0.0
13,0.0
14,10.396452380855525
15,-3.1242685523269939
16,8.014109739679896
17,-1.28396928439156
18,10.826731596538004
2,1, 1, 1, 0,20, 0.00,15.00,Tuesday
7,-1.9250000000000003
8,0.0
9,0.0
10,0.0
11,0.0
12,0.0
13,0.0
14,10.373871576480342
15,-2.8261568979817226
16,8.037289300091743
17,-1.0837342036364817
18,10.789029040767533
2,1, 1, 1, 0,20,15.00,30.00,Tuesday
7,-1.6500000000000002
8,0.0
9,0.0
10,0.0
11,0.0
12,0.0
13,0.0
14,10.350662536616968
15,-2.530783273216208
16,8.058734773734102
17,-0.8724066139933484
18,10.754629610987582
2,1, 1, 1, 0,20,30.00,45.00,Tuesday
7,-1.375
8,0.0
9,0.0
10,0.0
11,0.0
12,0.0
13,0.0
14,10.329402744106828
15,-2.2365084019332208
16,8.081506783866871
17,-0.6587822813226012
18,10.723059520006503
2,1, 1, 1, 0,20,45.00,60.00,Tuesday
7,-1.1
8,0.0
9,0.0
10,0.0
11,0.0
12,0.0
13,0.0
14,10.309731781537332
15,-1.9433735970365307
16,8.106362636981203
17,-0.4428921913928434
18,10.693561997805844
2,1, 1, 1, 0,21, 0.00,15.00,Tuesday
7,-1.25
8,0.0
9,0.0
10,0.0
11,0.0
12,0.0
13,0.0
14,10.252179413794439
15,-2.211866824909667
16,8.068148620400962
17,-0.4903859837802429
18,10.659489976112447
2,1, 1, 1, 0,21,15.00,30.00,Tuesday
7,-1.4
8,0.0
9,0.0
10,0.0
11,0.0
12,0.0
13,0.0
14,10.195414625920235
15,-2.4216587610409339
16,8.010875270505608
17,-0.5731434339147654
18,10.616377136188037
2,1, 1, 1, 0,21,30.00,45.00,Tuesday
7,-1.5499999999999999
8,0.0
9,0.0
10,0.0
11,0.0
12,0.0
13,0.0
14,10.126178710964489
15,-2.749061364475746
16,7.96473184054048
17,-0.6046968442293519
18,10.5637190458904
2,1, 1, 1, 0,21,45.00,60.00,Tuesday
7,-1.7
8,0.0
9,0.0
10,0.0
11,0.0
12,0.0
13,0.0
14,10.051698277174385
15,-3.1813373784688867
16,7.918634736080833
17,-0.6024494347032032
18,10.503923276252186
2,1, 1, 1, 0,22, 0.00,15.00,Tuesday
7,-1.5499999999999999
8,0.0
9,0.0
10,0.0
11,0.0
12,0.0
13,0.0
14,10.039534921348201
15,-2.7167887882626355
16,7.863804321743714
17,-0.618890569024984
18,10.44996809144959
2,1, 1, 1, 0,22,15.00,30.00,Tuesday
7,-1.4
8,0.0
9,0.0
10,0.0
11,0.0
12,0.0
13,0.0
14,10.0181720544365
15,-2.4021576211294399
16,7.84736747246518
17,-0.6007518454653109
18,10.408725539629377
2,1, 1, 1, 0,22,30.00,45.00,Tuesday
7,-1.25
8,0.0
9,0.0
10,0.0
11,0.0
12,0.0
13,0.0
14,9.996636756016354
15,-2.1890147829330814
16,7.840971523199812
17,-0.5179269032798857
18,10.377632941094282
2,1, 1, 1, 0,22,45.00,60.00,Tuesday
7,-1.1
8,0.0
9,0.0
10,0.0
11,0.0
12,0.0
13,0.0
14,9.978931733064213
15,-1.918920681458197
16,7.830383356428683
17,-0.4654032549575504
18,10.3513433678747
2,1, 1, 1, 0,23, 0.00,15.00,Tuesday
7,-1.25
8,0.0
9,0.0
10,0.0
11,0.0
12,0.0
13,0.0
14,9.920540728993958
15,-2.222085423795512
16,7.738650862839165
17,-0.7482552241110057
18,10.319535507692175
2,1, 1, 1, 0,23,15.00,30.00,Tuesday
7,-1.4
8,0.0
9,0.0
10,0.0
11,0.0
12,0.0
13,0.0
14,9.864304362292904
15,-2.5268179200057214
16,7.634360243746698
17,-1.0428644753557138
18,10.277533819775528
2,1, 1, 1, 0,23,30.00,45.00,Tuesday
7,-1.5499999999999999
8,0.0
9,0.0
10,0.0
11,0.0
12,0.0
13,0.0
14,9.803158829327929
15,-2.832201836687669
16,7.527998073180868
17,-1.3388828151895496
18,10.226870085386939
2,1, 1, 1, 0,23,45.00,60.00,Tuesday
7,-1.7
8,0.0
9,0.0
10,0.0
11,0.0
12,0.0
13,0.0
14,9.738152878303702
15,-3.1379306571827745
16,7.417427763408341
17,-1.636755418338339
18,10.170664924648092
2,1, 1, 1, 0,24, 0.00,15.00,Tuesday
7,-1.7
8,0.0
9,0.0
10,0.0
11,0.0
12,0.0
13,0.0
14,9.688409848702526
15,-3.1922916674562837
16,7.357899626864196
17,-1.7049008045532333
18,10.114450236744292
2,1, 1, 1, 0,24,15.00,30.00,Tuesday
7,-1.7
8,0.0
9,0.0
10,0.0
11,0.0
12,0.0
13,0.0
14,9.636738081453846
15,-3.2471566521923087
16,7.3030515236027899
17,-1.7699393756259952
18,10.061007709459965
2,1, 1, 1, 0,24,30.00,45.00,Tuesday
7,-1.7
8,0.0
9,0.0
10,0.0
11,0.0
12,0.0
13,0.0
14,9.586299139562492
15,-3.30191572754166
16,7.248236734851162
17,-1.8344103513529718
18,10.010126723675337
2,1, 1, 1, 0,24,45.00,60.00,Tuesday
7,-1.7
8,0.0
9,0.0
10,0.0
11,0.0
12,0.0
13,0.0
14,9.536732686703783
15,-3.356679879205972
16,7.194440374767282
17,-1.8984739888572904
18,9.960691057308015
End of Data
 Number of Records Written=        1152
