Program Version,EnergyPlus, Version 9.5.0-de239b2e5f, YMD=2023.02.13 19:58
1,5,Environment Title[],Latitude[deg],Longitude[deg],Time Zone[],Elevation[m]
2,8,Day of Simulation[],Month[],Day of Month[],DST Indicator[1=yes 0=no],Hour[],StartMinute[],EndMinute[],DayType
3,5,Cumulative Day of Simulation[],Month[],Day of Month[],DST Indicator[1=yes 0=no],DayType  ! When Daily Report Variables Requested
4,2,Cumulative Days of Simulation[],Month[]  ! When Monthly Report Variables Requested
5,1,Cumulative Days of Simulation[] ! When Run Period Report Variables Requested
6,1,Calendar Year of Simulation[] ! When Annual Report Variables Requested
7,1,Environment,Site Outdoor Air Drybulb Temperature [C] !TimeStep
8,1,ZONE ONE,Zone Windows Total Transmitted Solar Radiation Rate [W] !TimeStep
9,1,ZN001:WALL001,Surface Outside Face Sunlit Fraction [] !TimeStep
10,1,ZN001:WALL001,Surface Outside Face Incident Solar Radiation Rate per Area [W/m2] !TimeStep
11,1,ZN001:WALL001:WIN001,Surface Outside Face Sunlit Fraction [] !TimeStep
12,1,ZN001:WALL001:WIN001,Surface Outside Face Incident Solar Radiation Rate per Area [W/m2] !TimeStep
13,1,ZN001:WALL001:WIN001,Surface Window Transmitted Solar Radiation Rate [W] !TimeStep
14,1,ZN001:WALL001,Surface Inside Face Temperature [C] !TimeStep
15,1,ZN001:WALL001,Surface Outside Face Temperature [C] !TimeStep
16,1,ZN001:WALL001:WIN001,Surface Inside Face Temperature [C] !TimeStep
17,1,ZN001:WALL001:WIN001,Surface Outside Face Temperature [C] !TimeStep
18,1,ZONE ONE,Zone Mean Air Temperature [C] !TimeStep
End of Data Dictionary
1,RUN PERIOD 1,  41.98, -87.92,  -6.00, 201.00
2,1, 1, 1, 0, 1, 0.00,15.00,Tuesday
7,-4.324999999999999
8,0.0
9,0.0
10,0.0
11,0.0
12,0.0
13,0.0
14,1.7578635409736588
15,-5.971992330485024
16,-0.0796798937907397
17,-4.900329445022521
18,2.1078727451621606
2,1, 1, 1, 0, 1,15.00,30.00,Tuesday
7,-6.949999999999999
8,0.0
9,0.0
10,0.0
11,0.0
12,0.0
13,0.0
14,1.5817060181261487
15,-8.439923060985303
16,-0.765236804664255
17,-6.936569403391502
18,2.020489148453913
2,1, 1, 1, 0, 1,30.00,45.00,Tuesday
7,-9.575
8,0.0
9,0.0
10,0.0
11,0.0
12,0.0
13,0.0
14,1.3838819518351602
15,-10.916319053829291
16,-1.4526665808079998
17,-8.979256853295397
18,1.899077682656916
2,1, 1, 1, 0, 1,45.00,60.00,Tuesday
7,-12.2
8,0.0
9,0.0
10,0.0
11,0.0
12,0.0
13,0.0
14,1.1689887177117593
15,-13.399220250685966
16,-2.153806225382141
17,-11.030346153175288
18,1.7531539489480564
2,1, 1, 1, 0, 2, 0.00,15.00,Tuesday
7,-12.075
8,0.0
9,0.0
10,0.0
11,0.0
12,0.0
13,0.0
14,1.1121916939314017
15,-13.200847777001984
16,-2.2054466967824739
17,-10.887112031761604
18,1.6214768242176028
2,1, 1, 1, 0, 2,15.00,30.00,Tuesday
7,-11.95
8,0.0
9,0.0
10,0.0
11,0.0
12,0.0
13,0.0
14,1.0396340344318882
15,-13.023610646486866
16,-2.222279601421519
17,-10.746128567758206
18,1.522502359213294
2,1, 1, 1, 0, 2,30.00,45.00,Tuesday
7,-11.825
8,0.0
9,0.0
10,0.0
11,0.0
12,0.0
13,0.0
14,0.9847829060305989
15,-12.845108326267312
16,-2.2298109771286365
17,-10.614639008457516
18,1.4516411218319508
2,1, 1, 1, 0, 2,45.00,60.00,Tuesday
7,-11.7
8,0.0
9,0.0
10,0.0
11,0.0
12,0.0
13,0.0
14,0.9415699605005341
15,-12.666668889609426
16,-2.2326517209293685
17,-10.460212665645713
18,1.397785957032117
2,1, 1, 1, 0, 3, 0.00,15.00,Tuesday
7,-11.549999999999999
8,0.0
9,0.0
10,0.0
11,0.0
12,0.0
13,0.0
14,0.90028322582458
15,-12.542263414382019
16,-2.222918171268361
17,-10.331276472775472
18,1.3516682809969603
2,1, 1, 1, 0, 3,15.00,30.00,Tuesday
7,-11.399999999999999
8,0.0
9,0.0
10,0.0
11,0.0
12,0.0
13,0.0
14,0.8625395232578456
15,-12.419295565209115
16,-2.21392245221665
17,-10.194266722667067
18,1.3084592553437816
2,1, 1, 1, 0, 3,30.00,45.00,Tuesday
7,-11.25
8,0.0
9,0.0
10,0.0
11,0.0
12,0.0
13,0.0
14,0.8258894135427893
15,-12.297940006947013
16,-2.203525046561367
17,-10.056406579994814
18,1.26655682786979
2,1, 1, 1, 0, 3,45.00,60.00,Tuesday
7,-11.1
8,0.0
9,0.0
10,0.0
11,0.0
12,0.0
13,0.0
14,0.7898350125078493
15,-12.178257350807007
16,-2.1924849613004655
17,-9.91874668176871
18,1.2256281777574807
2,1, 1, 1, 0, 4, 0.00,15.00,Tuesday
7,-11.1
8,0.0
9,0.0
10,0.0
11,0.0
12,0.0
13,0.0
14,0.7501153618401849
15,-12.14746291822647
16,-2.237487739070957
17,-9.938662732834985
18,1.18468462980481
2,1, 1, 1, 0, 4,15.00,30.00,Tuesday
7,-11.1
8,0.0
9,0.0
10,0.0
11,0.0
12,0.0
13,0.0
14,0.7107877581671755
15,-12.117864640081603
16,-2.276354810381065
17,-9.965625127011549
18,1.1433452205943529
2,1, 1, 1, 0, 4,30.00,45.00,Tuesday
7,-11.1
8,0.0
9,0.0
10,0.0
11,0.0
12,0.0
13,0.0
14,0.6712769901202179
15,-12.089911343205907
16,-2.3143539615631427
17,-9.992597513524573
18,1.1017103568826355
2,1, 1, 1, 0, 4,45.00,60.00,Tuesday
7,-11.1
8,0.0
9,0.0
10,0.0
11,0.0
12,0.0
13,0.0
14,0.6316736968255247
15,-12.063467648302107
16,-2.3521198993943246
17,-10.018846886591973
18,1.0599799740678604
2,1, 1, 1, 0, 5, 0.00,15.00,Tuesday
7,-10.975
8,0.0
9,0.0
10,0.0
11,0.0
12,0.0
13,0.0
14,0.597850215303319
15,-11.94123554870934
16,-2.3495090350940019
17,-9.933971752281196
18,1.019352122794008
2,1, 1, 1, 0, 5,15.00,30.00,Tuesday
7,-10.85
8,0.0
9,0.0
10,0.0
11,0.0
12,0.0
13,0.0
14,0.5642320774622832
15,-11.819098795606312
16,-2.3491355869202836
17,-9.841337719703006
18,0.9803274381168072
2,1, 1, 1, 0, 5,30.00,45.00,Tuesday
7,-10.725
8,0.0
9,0.0
10,0.0
11,0.0
12,0.0
13,0.0
14,0.5316084154465574
15,-11.696940463667094
16,-2.3485806958321975
17,-9.747780531459796
18,0.9426957745110832
2,1, 1, 1, 0, 5,45.00,60.00,Tuesday
7,-10.6
8,0.0
9,0.0
10,0.0
11,0.0
12,0.0
13,0.0
14,0.4998260620615391
15,-11.574791732737288
16,-2.347282619320765
17,-9.653950758972258
18,0.9060815821784143
2,1, 1, 1, 0, 6, 0.00,15.00,Tuesday
7,-10.6
8,0.0
9,0.0
10,0.0
11,0.0
12,0.0
13,0.0
14,0.46068023831084789
15,-11.575598968844199
16,-2.376405994442166
17,-9.656838527996797
18,0.8689409944559364
2,1, 1, 1, 0, 6,15.00,30.00,Tuesday
7,-10.6
8,0.0
9,0.0
10,0.0
11,0.0
12,0.0
13,0.0
14,0.4221442499127572
15,-11.576316452376777
16,-2.4073558029373887
17,-9.6632484441717
18,0.8304593071273952
2,1, 1, 1, 0, 6,30.00,45.00,Tuesday
7,-10.6
8,0.0
9,0.0
10,0.0
11,0.0
12,0.0
13,0.0
14,0.3830695432410869
15,-11.577078299224635
16,-2.4382671304214229
17,-9.67045702507437
18,0.7908267128983395
2,1, 1, 1, 0, 6,45.00,60.00,Tuesday
7,-10.6
8,0.0
9,0.0
10,0.0
11,0.0
12,0.0
13,0.0
14,0.34362849914088258
15,-11.5778405337905
16,-2.469465771364412
17,-9.678022713389567
18,0.7505415737876191
2,1, 1, 1, 0, 7, 0.00,15.00,Tuesday
7,-10.6
8,0.0
9,0.0
10,0.0
11,0.0
12,0.0
13,0.0
14,0.3062907614431864
15,-11.552450152673787
16,-2.508975238715607
17,-9.697968624026544
18,0.7102258656386984
2,1, 1, 1, 0, 7,15.00,30.00,Tuesday
7,-10.6
8,0.0
9,0.0
10,0.0
11,0.0
12,0.0
13,0.0
14,0.26876217868777177
15,-11.528380002396086
16,-2.5440938037561979
17,-9.719396960949212
18,0.6703284416759693
2,1, 1, 1, 0, 7,30.00,45.00,Tuesday
7,-10.6
8,0.0
9,0.0
10,0.0
11,0.0
12,0.0
13,0.0
14,0.23146558459320538
15,-11.505527654427848
16,-2.5786926693711509
17,-9.74051954855861
18,0.63090788153409
2,1, 1, 1, 0, 7,45.00,60.00,Tuesday
7,-10.6
8,0.0
9,0.0
10,0.0
11,0.0
12,0.0
13,0.0
14,0.19444947518567866
15,-11.4838216575079
16,-2.6128391487511637
17,-9.760972258918173
18,0.5918690933849334
2,1, 1, 1, 0, 8, 0.00,15.00,Tuesday
7,-10.45
8,0.0
9,0.0
10,0.0
11,0.0
12,0.0
13,0.0
14,0.15664895978836147
15,-11.43608041301239
16,-2.618645305384973
17,-9.726833000048032
18,0.5529058474486163
2,1, 1, 1, 0, 8,15.00,30.00,Tuesday
7,-10.3
8,85.43058239647034
9,1.0
10,22.819555959623899
11,1.0
12,22.819555959623899
13,85.43058239647034
14,0.22677227994762148
15,-9.763184794042072
16,-2.226178213347225
17,-9.324731495902825
18,0.5292462040791962
2,1, 1, 1, 0, 8,30.00,45.00,Tuesday
7,-10.15
8,420.15097932123458
9,1.0
10,109.75755355442667
11,1.0
12,109.75755355442667
13,420.15097932123458
14,0.5906663263515803
15,-3.4035699037062199
16,-0.6165276563747284
17,-7.945449544967005
18,0.5626702269330984
2,1, 1, 1, 0, 8,45.00,60.00,Tuesday
7,-10.0
8,766.3041480948695
9,1.0
10,195.8764694434918
11,1.0
12,195.8764694434918
13,766.3041480948695
14,1.052924011696283
15,3.092026019996018
16,1.1543811868469903
17,-6.57569493388587
18,0.6576659390299959
2,1, 1, 1, 0, 9, 0.00,15.00,Tuesday
7,-9.725
8,1113.6338132228669
9,1.0
10,278.97248314719988
11,1.0
12,278.97248314719988
13,1113.6338132228669
14,1.394112209893097
15,8.267891479292832
16,2.7315507304147106
17,-5.3789467186633719
18,0.8003950275804594
2,1, 1, 1, 0, 9,15.00,30.00,Tuesday
7,-9.45
8,1482.3385199745094
9,1.0
10,364.91995730569456
11,1.0
12,364.91995730569456
13,1482.3385199745094
14,1.7737462879581163
15,13.349959028023699
16,4.287354615297033
17,-4.217258509782312
18,0.9832491466331873
2,1, 1, 1, 0, 9,30.00,45.00,Tuesday
7,-9.175
8,1729.845094636268
9,1.0
10,420.35879993239237
11,1.0
12,420.35879993239237
13,1729.845094636268
14,2.0326702959539095
15,16.109396850583626
16,5.298525138634318
17,-3.493736857290571
18,1.1869464469699567
2,1, 1, 1, 0, 9,45.00,60.00,Tuesday
7,-8.9
8,1988.1110786463856
9,1.0
10,478.00138373643099
11,1.0
12,478.00138373643099
13,1988.1110786463856
14,2.3381245424327199
15,19.105064343991445
16,6.317406998170327
17,-2.754138422016922
18,1.402273297428572
2,1, 1, 1, 0,10, 0.00,15.00,Tuesday
7,-8.350000000000002
8,2253.1800062821159
9,1.0
10,536.9185644770597
11,1.0
12,536.9185644770597
13,2253.1800062821159
14,2.584517407533103
15,20.225604810635628
16,7.354341080106394
17,-2.0126633921187819
18,1.6323460266785115
2,1, 1, 1, 0,10,15.00,30.00,Tuesday
7,-7.800000000000001
8,2528.489565329972
9,1.0
10,598.0969199229219
11,1.0
12,598.0969199229219
13,2528.489565329972
14,2.855535937741534
15,21.480832420940119
16,8.409071150690409
17,-1.27469991441626
18,1.880173381902407
2,1, 1, 1, 0,10,30.00,45.00,Tuesday
7,-7.25
8,2712.3752338235269
9,1.0
10,637.6133352894237
11,1.0
12,637.6133352894237
13,2712.3752338235269
14,3.0588846461331005
15,21.54260457204145
16,9.140960664327622
17,-0.7807484264661753
18,2.1312962815807405
2,1, 1, 1, 0,10,45.00,60.00,Tuesday
7,-6.7
8,2894.0470468119458
9,1.0
10,676.6412284283772
11,1.0
12,676.6412284283772
13,2894.0470468119458
14,3.279918491847145
15,21.70442294564563
16,9.848928080020983
17,-0.29084294411529756
18,2.3756665197544479
2,1, 1, 1, 0,11, 0.00,15.00,Tuesday
7,-6.275
8,3072.697636052132
9,1.0
10,715.0112779846514
11,1.0
12,715.0112779846514
13,3072.697636052132
14,3.577752991702394
15,23.80180409408848
16,10.610561715348866
17,0.45509861662537789
18,2.6167092199762576
2,1, 1, 1, 0,11,15.00,30.00,Tuesday
7,-5.85
8,3247.211272189228
9,1.0
10,752.5077794605232
11,1.0
12,752.5077794605232
13,3247.211272189228
14,3.861990056387773
15,25.73672926897371
16,11.359193270766469
17,1.1799115320980605
18,2.859328592588033
2,1, 1, 1, 0,11,30.00,45.00,Tuesday
7,-5.425
8,3200.648636865353
9,1.0
10,742.5988714321785
11,1.0
12,742.5988714321785
13,3200.648636865353
14,4.022275024930747
15,25.588565353469006
16,11.462051490867339
17,1.4487758379257799
18,3.0878206255615137
2,1, 1, 1, 0,11,45.00,60.00,Tuesday
7,-5.0
8,3131.2849253128599
9,1.0
10,727.8169025450712
11,1.0
12,727.8169025450712
13,3131.2849253128599
14,4.178577885345007
15,25.359102651385017
16,11.477153390238073
17,1.681201505830586
18,3.29107641486874
2,1, 1, 1, 0,12, 0.00,15.00,Tuesday
7,-4.575
8,3009.9587196721065
9,1.0
10,700.3759009170325
11,1.0
12,700.3759009170325
13,3009.9587196721065
14,4.284111408287499
15,24.616294114419206
16,11.321476146900409
17,1.8362570244559038
18,3.4636181361620417
2,1, 1, 1, 0,12,15.00,30.00,Tuesday
7,-4.15
8,2918.052024174625
9,1.0
10,681.6705029034473
11,1.0
12,681.6705029034473
13,2918.052024174625
14,4.4089872440201829
15,24.285616623163557
16,11.27440355029222
17,2.0754417825957036
18,3.6127555001747786
2,1, 1, 1, 0,12,30.00,45.00,Tuesday
7,-3.7249999999999998
8,2559.074832607672
9,1.0
10,602.01865277251
11,1.0
12,602.01865277251
13,2559.074832607672
14,4.322603156178474
15,21.257224046031927
16,10.384186645753744
17,1.7527543689029699
18,3.7198266794337968
2,1, 1, 1, 0,12,45.00,60.00,Tuesday
7,-3.3
8,2088.2823239097608
9,1.0
10,493.55004396206007
11,1.0
12,493.55004396206007
13,2088.2823239097608
14,4.141328479794004
15,17.078517577172439
16,9.00147161385803
17,1.1329920580318458
18,3.76550014917154
2,1, 1, 1, 0,13, 0.00,15.00,Tuesday
7,-3.0249999999999996
8,1719.307898107924
9,1.0
10,412.335026418112
11,1.0
12,412.335026418112
13,1719.307898107924
14,4.012396402741219
15,14.233645162606278
16,7.936050028317254
17,0.7106273852496088
18,3.7634973107646978
2,1, 1, 1, 0,13,15.00,30.00,Tuesday
7,-2.75
8,1255.0352031141677
9,1.0
10,305.94037763660148
11,1.0
12,305.94037763660148
13,1255.0352031141677
14,3.7483981565049935
15,10.060023356920026
16,6.446050753783652
17,0.01401736518329244
18,3.72040387526099
2,1, 1, 1, 0,13,30.00,45.00,Tuesday
7,-2.475
8,1143.631124766964
9,1.0
10,281.0763483922329
11,1.0
12,281.0763483922329
13,1143.631124766964
14,3.7337283779918235
15,9.546300137182401
16,6.123424872883447
17,0.09179126131027715
18,3.66585192598545
2,1, 1, 1, 0,13,45.00,60.00,Tuesday
7,-2.2
8,1034.5566840209838
9,1.0
10,256.7721209415886
11,1.0
12,256.7721209415886
13,1034.5566840209838
14,3.7032104021591558
15,8.93945861383277
16,5.856479117133688
17,0.19325067735172753
18,3.6203671868214539
2,1, 1, 1, 0,14, 0.00,15.00,Tuesday
7,-1.9250000000000003
8,843.7523747322434
9,1.0
10,210.73276284570657
11,1.0
12,210.73276284570657
13,843.7523747322434
14,3.5932949146299855
15,7.390885204791936
16,5.218090273979897
17,0.033473836668008519
18,3.580188344269627
2,1, 1, 1, 0,14,15.00,30.00,Tuesday
7,-1.6500000000000002
8,747.2938281273458
9,1.0
10,189.38488290342594
11,1.0
12,189.38488290342594
13,747.2938281273458
14,3.5696750027036945
15,6.9835386646330399
16,4.949506017452904
17,0.11439821032735154
18,3.54522313975713
2,1, 1, 1, 0,14,30.00,45.00,Tuesday
7,-1.375
8,713.0729639805293
9,1.0
10,179.3940297802914
11,1.0
12,179.3940297802914
13,713.0729639805293
14,3.5719855784774334
15,7.10503354165764
16,4.87971259474449
17,0.31701012091917848
18,3.5171053817660149
2,1, 1, 1, 0,14,45.00,60.00,Tuesday
7,-1.1
8,678.1455634441722
9,1.0
10,169.43349014176136
11,1.0
12,169.43349014176136
13,678.1455634441722
14,3.5714269442622337
15,7.202262194509208
16,4.8060495808443879
17,0.5170570837275363
18,3.496114901868016
2,1, 1, 1, 0,15, 0.00,15.00,Tuesday
7,-1.1
8,713.0254278528427
9,1.0
10,178.15692317953907
11,1.0
12,178.15692317953907
13,713.0254278528427
14,3.622298697948729
15,8.01694729473552
16,4.964188770537078
17,0.6665366630770677
18,3.485066142808962
2,1, 1, 1, 0,15,15.00,30.00,Tuesday
7,-1.1
8,669.3332475303355
9,1.0
10,166.40516310952945
11,1.0
12,166.40516310952945
13,669.3332475303355
14,3.584418674878921
15,7.653598252552728
16,4.787572642187172
17,0.5798180099101842
18,3.4780941290177136
2,1, 1, 1, 0,15,30.00,45.00,Tuesday
7,-1.1
8,563.2430159033937
9,1.0
10,140.8967369711617
11,1.0
12,140.8967369711617
13,563.2430159033937
14,3.4914299409226605
15,6.445900772745881
16,4.349859600870161
17,0.2955985607131879
18,3.464196798028777
2,1, 1, 1, 0,15,45.00,60.00,Tuesday
7,-1.1
8,462.57460658230596
9,1.0
10,116.57355796743004
11,1.0
12,116.57355796743004
13,462.57460658230596
14,3.3941375518328398
15,5.2333415952775399
16,3.9010320820687527
17,0.00869844185956481
18,3.4354249193578325
2,1, 1, 1, 0,16, 0.00,15.00,Tuesday
7,-1.1
8,366.4201537001238
9,1.0
10,93.14939272689483
11,1.0
12,93.14939272689483
13,366.4201537001238
14,3.3010378291938364
15,4.177090216494277
16,3.47048454466119
17,-0.22002915738914909
18,3.3926515294604537
2,1, 1, 1, 0,16,15.00,30.00,Tuesday
7,-1.1
8,226.98826256185778
9,1.0
10,57.94047897402063
11,1.0
12,57.94047897402063
13,226.98826256185778
14,3.1355278927768586
15,2.047816680871299
16,2.792615027815657
17,-0.6498225928053216
18,3.3318386092369045
2,1, 1, 1, 0,16,30.00,45.00,Tuesday
7,-1.1
8,175.67242770507284
9,1.0
10,45.38251793443488
11,1.0
12,45.38251793443488
13,175.67242770507284
14,3.075916432707384
15,1.43110914754238
16,2.5355553113206499
17,-0.7684388995280642
18,3.2607891755625859
2,1, 1, 1, 0,16,45.00,60.00,Tuesday
7,-1.1
8,122.45283212623183
9,1.0
10,32.02625108222755
11,1.0
12,32.02625108222755
13,122.45283212623183
14,2.9828302708054696
15,0.5597709656537744
16,2.2783172319549296
17,-0.9066967246722015
18,3.1861935777492569
2,1, 1, 1, 0,17, 0.00,15.00,Tuesday
7,-1.1
8,67.11026965188977
9,1.0
10,17.762198626050539
11,1.0
12,17.762198626050539
13,67.11026965188977
14,2.8607693031952308
15,-0.7024738740504928
16,1.9543100453459488
17,-1.1745567546723806
18,3.1053407483125139
2,1, 1, 1, 0,17,15.00,30.00,Tuesday
7,-1.1
8,0.0
9,0.0
10,0.0
11,0.0
12,0.0
13,0.0
14,2.689836721908427
15,-2.544547768912361
16,1.5491982770771529
17,-1.5334166529498817
18,3.0093617313081966
2,1, 1, 1, 0,17,30.00,45.00,Tuesday
7,-1.1
8,0.0
9,0.0
10,0.0
11,0.0
12,0.0
13,0.0
14,2.6423124985369355
15,-2.685096400394971
16,1.4630111047878245
17,-1.5832341217937938
18,2.914148992035966
2,1, 1, 1, 0,17,45.00,60.00,Tuesday
7,-1.1
8,0.0
9,0.0
10,0.0
11,0.0
12,0.0
13,0.0
14,2.5801295621006319
15,-2.88479923859302
16,1.406604653854231
17,-1.6356060952264216
18,2.8337832894613146
2,1, 1, 1, 0,18, 0.00,15.00,Tuesday
7,-1.25
8,0.0
9,0.0
10,0.0
11,0.0
12,0.0
13,0.0
14,2.529510243041331
15,-3.031520648126109
16,1.3214285251378897
17,-1.7732723917984004
18,2.770463443337215
2,1, 1, 1, 0,18,15.00,30.00,Tuesday
7,-1.4
8,0.0
9,0.0
10,0.0
11,0.0
12,0.0
13,0.0
14,2.4839123985195976
15,-3.1838876243913347
16,1.2501548801247964
17,-1.8997846733851134
18,2.7200232058080737
2,1, 1, 1, 0,18,30.00,45.00,Tuesday
7,-1.5499999999999999
8,0.0
9,0.0
10,0.0
11,0.0
12,0.0
13,0.0
14,2.4427593189669367
15,-3.335636259970057
16,1.1829332724497022
17,-2.025574042807307
18,2.6774097982325064
2,1, 1, 1, 0,18,45.00,60.00,Tuesday
7,-1.7
8,0.0
9,0.0
10,0.0
11,0.0
12,0.0
13,0.0
14,2.4039908735926684
15,-3.48755633362587
16,1.1188575087971345
17,-2.1502629397415378
18,2.639060102620395
2,1, 1, 1, 0,19, 0.00,15.00,Tuesday
7,-1.825
8,0.0
9,0.0
10,0.0
11,0.0
12,0.0
13,0.0
14,2.3937992827170304
15,-3.3268875258302876
16,1.0814490696121766
17,-2.1970172283119497
18,2.6068484836663505
2,1, 1, 1, 0,19,15.00,30.00,Tuesday
7,-1.9500000000000002
8,0.0
9,0.0
10,0.0
11,0.0
12,0.0
13,0.0
14,2.3821196266042086
15,-3.249187764343893
16,1.0460126170066815
17,-2.2625773830618529
18,2.5822903184538599
2,1, 1, 1, 0,19,30.00,45.00,Tuesday
7,-2.075
8,0.0
9,0.0
10,0.0
11,0.0
12,0.0
13,0.0
14,2.365413262226703
15,-3.31998877751126
16,1.0061633862566737
17,-2.3534021634490047
18,2.5636064709174235
2,1, 1, 1, 0,19,45.00,60.00,Tuesday
7,-2.2
8,0.0
9,0.0
10,0.0
11,0.0
12,0.0
13,0.0
14,2.3520061233645
15,-3.2880707270703355
16,0.9720153118157668
17,-2.4319948671828799
18,2.547742363145656
2,1, 1, 1, 0,20, 0.00,15.00,Tuesday
7,-1.9250000000000003
8,0.0
9,0.0
10,0.0
11,0.0
12,0.0
13,0.0
14,2.354888821739341
15,-2.9844604550351625
16,1.036908508638703
17,-2.2153925663023985
18,2.534856676941743
2,1, 1, 1, 0,20,15.00,30.00,Tuesday
7,-1.6500000000000002
8,0.0
9,0.0
10,0.0
11,0.0
12,0.0
13,0.0
14,2.358332673112135
15,-2.68408803122142
16,1.101640901092651
17,-1.9882463613015489
18,2.525286056012472
2,1, 1, 1, 0,20,30.00,45.00,Tuesday
7,-1.375
8,0.0
9,0.0
10,0.0
11,0.0
12,0.0
13,0.0
14,2.363373609566097
15,-2.3851080587694888
16,1.1680707482418598
17,-1.7589122188280726
18,2.5186254125942155
2,1, 1, 1, 0,20,45.00,60.00,Tuesday
7,-1.1
8,0.0
9,0.0
10,0.0
11,0.0
12,0.0
13,0.0
14,2.369950179094276
15,-2.08749054490982
16,1.2364983748133228
17,-1.5276744490589636
18,2.5142015277912099
2,1, 1, 1, 0,21, 0.00,15.00,Tuesday
7,-1.25
8,0.0
9,0.0
10,0.0
11,0.0
12,0.0
13,0.0
14,2.330985139376572
15,-2.3786209720946784
16,1.179254244514766
17,-1.664481982353493
18,2.505362713185779
2,1, 1, 1, 0,21,15.00,30.00,Tuesday
7,-1.4
8,0.0
9,0.0
10,0.0
11,0.0
12,0.0
13,0.0
14,2.2929970844513556
15,-2.6004231116380676
16,1.1217706831648116
17,-1.7946329625424369
18,2.48726533363299
2,1, 1, 1, 0,21,30.00,45.00,Tuesday
7,-1.5499999999999999
8,0.0
9,0.0
10,0.0
11,0.0
12,0.0
13,0.0
14,2.2408561692645847
15,-2.957835814962488
16,1.0538373483319675
17,-1.94665082061681
18,2.4585063559469875
2,1, 1, 1, 0,21,45.00,60.00,Tuesday
7,-1.7
8,0.0
9,0.0
10,0.0
11,0.0
12,0.0
13,0.0
14,2.1834078611074014
15,-3.424627657511462
16,0.973214197743971
17,-2.123411112709391
18,2.4208537951938049
2,1, 1, 1, 0,22, 0.00,15.00,Tuesday
7,-1.5499999999999999
8,0.0
9,0.0
10,0.0
11,0.0
12,0.0
13,0.0
14,2.1996758826157265
15,-2.9194322357273947
16,1.0024657025602438
17,-1.9656713557722015
18,2.3882662505713729
2,1, 1, 1, 0,22,15.00,30.00,Tuesday
7,-1.4
8,0.0
9,0.0
10,0.0
11,0.0
12,0.0
13,0.0
14,2.2076452198780944
15,-2.577280113482421
16,1.0454138638480118
17,-1.8151233802660159
18,2.3686514111934264
2,1, 1, 1, 0,22,30.00,45.00,Tuesday
7,-1.25
8,0.0
9,0.0
10,0.0
11,0.0
12,0.0
13,0.0
14,2.2131589092863948
15,-2.3518297927431539
16,1.0831820579620058
17,-1.6836505506760205
18,2.3601919823526997
2,1, 1, 1, 0,22,45.00,60.00,Tuesday
7,-1.1
8,0.0
9,0.0
10,0.0
11,0.0
12,0.0
13,0.0
14,2.222509594194456
15,-2.0596315998141474
16,1.1312350220149484
17,-1.5323711929352158
18,2.35791392855033
2,1, 1, 1, 0,23, 0.00,15.00,Tuesday
7,-1.25
8,0.0
9,0.0
10,0.0
11,0.0
12,0.0
13,0.0
14,2.18373712139137
15,-2.363351675361061
16,1.0335209095416076
17,-1.796497277760409
18,2.351499743488875
2,1, 1, 1, 0,23,15.00,30.00,Tuesday
7,-1.4
8,0.0
9,0.0
10,0.0
11,0.0
12,0.0
13,0.0
14,2.1469997407748857
15,-2.6678904831006564
16,0.9275411853255946
17,-2.0797856382919237
18,2.335251133701708
2,1, 1, 1, 0,23,30.00,45.00,Tuesday
7,-1.5499999999999999
8,0.0
9,0.0
10,0.0
11,0.0
12,0.0
13,0.0
14,2.1063722890686589
15,-2.973033119002973
16,0.8206142591882326
17,-2.3633923723048158
18,2.3096161872769698
2,1, 1, 1, 0,23,45.00,60.00,Tuesday
7,-1.7
8,0.0
9,0.0
10,0.0
11,0.0
12,0.0
13,0.0
14,2.0619924701382534
15,-3.27852902642726
16,0.7104899676558603
17,-2.6476371913970526
18,2.277246806708306
2,1, 1, 1, 0,24, 0.00,15.00,Tuesday
7,-1.7
8,0.0
9,0.0
10,0.0
11,0.0
12,0.0
13,0.0
14,2.03572322499674
15,-3.332257831176871
16,0.6697529878725845
17,-2.7071756078909177
18,2.24376026382258
2,1, 1, 1, 0,24,15.00,30.00,Tuesday
7,-1.7
8,0.0
9,0.0
10,0.0
11,0.0
12,0.0
13,0.0
14,2.006343743514023
15,-3.38678382373316
16,0.6325092529336871
17,-2.765231343221899
18,2.212349382755136
2,1, 1, 1, 0,24,30.00,45.00,Tuesday
7,-1.7
8,0.0
9,0.0
10,0.0
11,0.0
12,0.0
13,0.0
14,1.9777381787965325
15,-3.4411661193566518
16,0.5947032215204899
17,-2.8234507044357999
18,2.1832482967561419
2,1, 1, 1, 0,24,45.00,60.00,Tuesday
7,-1.7
8,0.0
9,0.0
10,0.0
11,0.0
12,0.0
13,0.0
14,1.9497933234285426
15,-3.4955481182152585
16,0.5575919496810684
17,-2.8814124759134076
18,2.155607953886561
End of Data
 Number of Records Written=        1152
