Program Version,EnergyPlus, Version 9.5.0-de239b2e5f, YMD=2023.02.13 19:58
1,5,Environment Title[],Latitude[deg],Longitude[deg],Time Zone[],Elevation[m]
2,8,Day of Simulation[],Month[],Day of Month[],DST Indicator[1=yes 0=no],Hour[],StartMinute[],EndMinute[],DayType
3,5,Cumulative Day of Simulation[],Month[],Day of Month[],DST Indicator[1=yes 0=no],DayType  ! When Daily Report Variables Requested
4,2,Cumulative Days of Simulation[],Month[]  ! When Monthly Report Variables Requested
5,1,Cumulative Days of Simulation[] ! When Run Period Report Variables Requested
6,1,Calendar Year of Simulation[] ! When Annual Report Variables Requested
7,1,Environment,Site Outdoor Air Drybulb Temperature [C] !TimeStep
8,1,ZONE ONE,Zone Windows Total Transmitted Solar Radiation Rate [W] !TimeStep
9,1,ZN001:WALL001,Surface Outside Face Sunlit Fraction [] !TimeStep
10,1,ZN001:WALL001,Surface Outside Face Incident Solar Radiation Rate per Area [W/m2] !TimeStep
11,1,ZN001:WALL001:WIN001,Surface Outside Face Sunlit Fraction [] !TimeStep
12,1,ZN001:WALL001:WIN001,Surface Outside Face Incident Solar Radiation Rate per Area [W/m2] !TimeStep
13,1,ZN001:WALL001:WIN001,Surface Window Transmitted Solar Radiation Rate [W] !TimeStep
14,1,ZN001:WALL001,Surface Inside Face Temperature [C] !TimeStep
15,1,ZN001:WALL001,Surface Outside Face Temperature [C] !TimeStep
16,1,ZN001:WALL001:WIN001,Surface Inside Face Temperature [C] !TimeStep
17,1,ZN001:WALL001:WIN001,Surface Outside Face Temperature [C] !TimeStep
18,1,ZONE ONE,Zone Mean Air Temperature [C] !TimeStep
End of Data Dictionary
1,RUN PERIOD 1,  41.98, -87.92,  -6.00, 201.00
2,1, 1, 1, 0, 1, 0.00,15.00,Tuesday
7,-4.324999999999999
8,0.0
9,0.0
10,0.0
11,0.0
12,0.0
13,0.0
14,4.043139636862805
15,-5.930322986824117
16,1.729515497817033
17,-4.461305291591259
18,4.451339357051675
2,1, 1, 1, 0, 1,15.00,30.00,Tuesday
7,-6.949999999999999
8,0.0
9,0.0
10,0.0
11,0.0
12,0.0
13,0.0
14,3.862143473635191
15,-8.39803519200724
16,1.052157971341785
17,-6.4974912559991939
18,4.356250137154997
2,1, 1, 1, 0, 1,30.00,45.00,Tuesday
7,-9.575
8,0.0
9,0.0
10,0.0
11,0.0
12,0.0
13,0.0
14,3.660511312334691
15,-10.873904042381014
16,0.37021160687100976
17,-8.54001189537621
18,4.22778795589169
2,1, 1, 1, 0, 1,45.00,60.00,Tuesday
7,-12.2
8,0.0
9,0.0
10,0.0
11,0.0
12,0.0
13,0.0
14,3.4425335621799437
15,-13.356368454474682
16,-0.3260097199275833
17,-10.59055549294635
18,4.07593460979735
2,1, 1, 1, 0, 2, 0.00,15.00,Tuesday
7,-12.075
8,0.0
9,0.0
10,0.0
11,0.0
12,0.0
13,0.0
14,3.3773247687904686
15,-13.157684732306432
16,-0.3816808508588565
17,-10.441856576544524
18,3.9392706816500056
2,1, 1, 1, 0, 2,15.00,30.00,Tuesday
7,-11.95
8,0.0
9,0.0
10,0.0
11,0.0
12,0.0
13,0.0
14,3.2981980294639374
15,-12.980545551049863
16,-0.4055787681407992
17,-10.302885081624482
18,3.835578166394799
2,1, 1, 1, 0, 2,30.00,45.00,Tuesday
7,-11.825
8,0.0
9,0.0
10,0.0
11,0.0
12,0.0
13,0.0
14,3.236744712147419
15,-12.80220751360787
16,-0.42361967172138295
17,-10.163301405983362
18,3.7595624023064588
2,1, 1, 1, 0, 2,45.00,60.00,Tuesday
7,-11.7
8,0.0
9,0.0
10,0.0
11,0.0
12,0.0
13,0.0
14,3.1869714252149374
15,-12.623941226101568
16,-0.4248798156542648
17,-10.030458521358696
18,3.700016238526114
2,1, 1, 1, 0, 3, 0.00,15.00,Tuesday
7,-11.549999999999999
8,0.0
9,0.0
10,0.0
11,0.0
12,0.0
13,0.0
14,3.1389530653826847
15,-12.498514811401181
16,-0.42653202351203847
17,-9.877957209258284
18,3.6475917814772744
2,1, 1, 1, 0, 3,15.00,30.00,Tuesday
7,-11.399999999999999
8,0.0
9,0.0
10,0.0
11,0.0
12,0.0
13,0.0
14,3.0944261741505869
15,-12.374490164180554
16,-0.4187500603767944
17,-9.744006488444086
18,3.597723414079447
2,1, 1, 1, 0, 3,30.00,45.00,Tuesday
7,-11.25
8,0.0
9,0.0
10,0.0
11,0.0
12,0.0
13,0.0
14,3.050835946247914
15,-12.252021430534056
16,-0.41222229484571928
17,-9.601422710849647
18,3.549002825235409
2,1, 1, 1, 0, 3,45.00,60.00,Tuesday
7,-11.1
8,0.0
9,0.0
10,0.0
11,0.0
12,0.0
13,0.0
14,3.00781325017796
15,-12.131169969090497
16,-0.40554292349230539
17,-9.458217808186874
18,3.501184180101259
2,1, 1, 1, 0, 4, 0.00,15.00,Tuesday
7,-11.1
8,0.0
9,0.0
10,0.0
11,0.0
12,0.0
13,0.0
14,2.9609985052270098
15,-12.101854745766213
16,-0.45899766260049548
17,-9.486302920567312
18,3.45321417850729
2,1, 1, 1, 0, 4,15.00,30.00,Tuesday
7,-11.1
8,0.0
9,0.0
10,0.0
11,0.0
12,0.0
13,0.0
14,2.914571625659541
15,-12.073677101117957
16,-0.5056823984084531
17,-9.52150078852668
18,3.4047183538041496
2,1, 1, 1, 0, 4,30.00,45.00,Tuesday
7,-11.1
8,0.0
9,0.0
10,0.0
11,0.0
12,0.0
13,0.0
14,2.8679179425482546
15,-12.047075623926965
16,-0.5514505703311556
17,-9.55656272182381
18,3.3558535189537586
2,1, 1, 1, 0, 4,45.00,60.00,Tuesday
7,-11.1
8,0.0
9,0.0
10,0.0
11,0.0
12,0.0
13,0.0
14,2.821159004472001
15,-12.021916646863677
16,-0.5969628353705048
17,-9.590727374198025
18,3.3068704727949895
2,1, 1, 1, 0, 5, 0.00,15.00,Tuesday
7,-10.975
8,0.0
9,0.0
10,0.0
11,0.0
12,0.0
13,0.0
14,2.78013942794063
15,-11.899857178243762
16,-0.6004783361902355
17,-9.507458091863385
18,3.259047222746783
2,1, 1, 1, 0, 5,15.00,30.00,Tuesday
7,-10.85
8,0.0
9,0.0
10,0.0
11,0.0
12,0.0
13,0.0
14,2.739348497116324
15,-11.777877109136794
16,-0.6064939663766609
17,-9.416264912452903
18,3.212893672795339
2,1, 1, 1, 0, 5,30.00,45.00,Tuesday
7,-10.725
8,0.0
9,0.0
10,0.0
11,0.0
12,0.0
13,0.0
14,2.699605017124564
15,-11.655874084208938
16,-0.6123077074352068
17,-9.324130909891892
18,3.168171938556394
2,1, 1, 1, 0, 5,45.00,60.00,Tuesday
7,-10.6
8,0.0
9,0.0
10,0.0
11,0.0
12,0.0
13,0.0
14,2.660736198427575
15,-11.533880419851581
16,-0.6173395083883406
17,-9.231714973804629
18,3.1244842590356947
2,1, 1, 1, 0, 6, 0.00,15.00,Tuesday
7,-10.6
8,0.0
9,0.0
10,0.0
11,0.0
12,0.0
13,0.0
14,2.61473690568989
15,-11.534798428955823
16,-0.6518425026650903
17,-9.236322431067038
18,3.0802779116250469
2,1, 1, 1, 0, 6,15.00,30.00,Tuesday
7,-10.6
8,0.0
9,0.0
10,0.0
11,0.0
12,0.0
13,0.0
14,2.569313172286101
15,-11.53564531833245
16,-0.6919495220363956
17,-9.241867679236805
18,3.034631262337426
2,1, 1, 1, 0, 6,30.00,45.00,Tuesday
7,-10.6
8,0.0
9,0.0
10,0.0
11,0.0
12,0.0
13,0.0
14,2.5233523488170777
15,-11.536539804690298
16,-0.7287309525156047
17,-9.25028117619297
18,2.9878287726197367
2,1, 1, 1, 0, 6,45.00,60.00,Tuesday
7,-10.6
8,0.0
9,0.0
10,0.0
11,0.0
12,0.0
13,0.0
14,2.477027955424693
15,-11.537432340843616
16,-0.7656801547307168
17,-9.259215596636978
18,2.940446105619428
2,1, 1, 1, 0, 7, 0.00,15.00,Tuesday
7,-10.6
8,0.0
9,0.0
10,0.0
11,0.0
12,0.0
13,0.0
14,2.4327409438286948
15,-11.513229887921244
16,-0.8100082760408895
17,-9.288149121801212
18,2.8931793851073506
2,1, 1, 1, 0, 7,15.00,30.00,Tuesday
7,-10.6
8,0.0
9,0.0
10,0.0
11,0.0
12,0.0
13,0.0
14,2.3883108356183424
15,-11.490283117083602
16,-0.8524101281029743
17,-9.317253318963651
18,2.846387962303593
2,1, 1, 1, 0, 7,30.00,45.00,Tuesday
7,-10.6
8,0.0
9,0.0
10,0.0
11,0.0
12,0.0
13,0.0
14,2.344154288097071
15,-11.468501466840538
16,-0.8943384355794706
17,-9.345625202807128
18,2.8000620694053239
2,1, 1, 1, 0, 7,45.00,60.00,Tuesday
7,-10.6
8,0.0
9,0.0
10,0.0
11,0.0
12,0.0
13,0.0
14,2.3002850625726438
15,-11.447815999546524
16,-0.9357597031962541
17,-9.373109664741265
18,2.7540921136083744
2,1, 1, 1, 0, 8, 0.00,15.00,Tuesday
7,-10.45
8,0.0
9,0.0
10,0.0
11,0.0
12,0.0
13,0.0
14,2.2557690767779507
15,-11.399290531226532
16,-0.9490729851842161
17,-9.323427848500046
18,2.708194761313013
2,1, 1, 1, 0, 8,15.00,30.00,Tuesday
7,-10.3
8,123.87783879393521
9,1.0
10,22.819555959623899
11,1.0
12,22.819555959623899
13,123.87783879393521
14,2.32665491865808
15,-9.726009835672669
16,-0.5544391343362349
17,-8.92164126086493
18,2.6798849887403799
2,1, 1, 1, 0, 8,30.00,45.00,Tuesday
7,-10.15
8,609.2361052149693
9,1.0
10,109.75755355442667
11,1.0
12,109.75755355442667
13,609.2361052149693
14,2.7124760200979165
15,-3.360312288923502
16,1.0461381030886515
17,-7.53065377304938
18,2.717413186455059
2,1, 1, 1, 0, 8,45.00,60.00,Tuesday
7,-10.0
8,1111.172358445356
9,1.0
10,195.8764694434918
11,1.0
12,195.8764694434918
13,1111.172358445356
14,3.227387151894843
15,3.15105922755953
16,2.780149822401768
17,-6.158822749544811
18,2.825559252600888
2,1, 1, 1, 0, 9, 0.00,15.00,Tuesday
7,-9.725
8,1614.8145795115179
9,1.0
10,278.97248314719988
11,1.0
12,278.97248314719988
13,1614.8145795115179
14,3.5894635197266946
15,8.300628666824652
16,4.3980363307993
17,-4.98106771810501
18,2.9856647820517367
2,1, 1, 1, 0, 9,15.00,30.00,Tuesday
7,-9.45
8,2149.451485223683
9,1.0
10,364.91995730569456
11,1.0
12,364.91995730569456
13,2149.451485223683
14,4.009053429213709
15,13.38488503570509
16,5.955591497734872
17,-3.8407514430008975
18,3.1892860932548325
2,1, 1, 1, 0, 9,30.00,45.00,Tuesday
7,-9.175
8,2508.346142106506
9,1.0
10,420.35879993239237
11,1.0
12,420.35879993239237
13,2508.346142106506
14,4.300646669517058
15,16.142652820582048
16,6.961357079699781
17,-3.1405081280142896
18,3.4158219947188668
2,1, 1, 1, 0, 9,45.00,60.00,Tuesday
7,-8.9
8,2882.8423826304649
9,1.0
10,478.00138373643099
11,1.0
12,478.00138373643099
13,2882.8423826304649
14,4.6436358072881129
15,19.137919118248204
16,7.972221302547155
17,-2.4245359516008877
18,3.655084974626366
2,1, 1, 1, 0,10, 0.00,15.00,Tuesday
7,-8.350000000000002
8,3267.2031696683186
9,1.0
10,536.9185644770597
11,1.0
12,536.9185644770597
13,3267.2031696683186
14,4.930826702498174
15,20.25616629351743
16,8.998236734676766
17,-1.720218202513479
18,3.907878926676194
2,1, 1, 1, 0,10,15.00,30.00,Tuesday
7,-7.800000000000001
8,3666.413291120194
9,1.0
10,598.0969199229219
11,1.0
12,598.0969199229219
13,3666.413291120194
14,5.245184562484824
15,21.509680942583925
16,10.043330595648968
17,-1.0160293853422218
18,4.183480007613833
2,1, 1, 1, 0,10,30.00,45.00,Tuesday
7,-7.25
8,3933.0550318077687
9,1.0
10,637.6133352894237
11,1.0
12,637.6133352894237
13,3933.0550318077687
14,5.488224156972005
15,21.56992617319167
16,10.772834130536467
17,-0.5493766446249424
18,4.467579570538144
2,1, 1, 1, 0,10,45.00,60.00,Tuesday
7,-6.7
8,4196.486591460473
9,1.0
10,676.6412284283772
11,1.0
12,676.6412284283772
13,4196.486591460473
14,5.7534641130283969
15,21.730535687964378
16,11.478253565786645
17,-0.08450591110403139
18,4.748366053119057
2,1, 1, 1, 0,11, 0.00,15.00,Tuesday
7,-6.275
8,4455.537253102586
9,1.0
10,715.0112779846514
11,1.0
12,715.0112779846514
13,4455.537253102586
14,6.095482447076831
15,23.828324674879025
16,12.242564717740948
17,0.647099518206744
18,5.02832482662697
2,1, 1, 1, 0,11,15.00,30.00,Tuesday
7,-5.85
8,4708.589163533651
9,1.0
10,752.5077794605232
11,1.0
12,752.5077794605232
13,4708.589163533651
14,6.425887204264009
15,25.763537107909824
16,12.995223398165934
17,1.3584338201351898
18,5.311982325069675
2,1, 1, 1, 0,11,30.00,45.00,Tuesday
7,-5.425
8,4641.071437787818
9,1.0
10,742.5988714321785
11,1.0
12,742.5988714321785
13,4641.071437787818
14,6.62110437679829
15,25.615498268781715
16,13.1315033347758
17,1.6335658166511849
18,5.581713389143048
2,1, 1, 1, 0,11,45.00,60.00,Tuesday
7,-5.0
8,4540.491218891129
9,1.0
10,727.8169025450712
11,1.0
12,727.8169025450712
13,4540.491218891129
14,6.811610908077699
15,25.38646379325083
16,13.180271623236024
17,1.8739952731887116
18,5.824576821722941
2,1, 1, 1, 0,12, 0.00,15.00,Tuesday
7,-4.575
8,4364.563258174008
9,1.0
10,700.3759009170325
11,1.0
12,700.3759009170325
13,4364.563258174008
14,6.944508041334542
15,24.64398666478705
16,13.059101660160536
17,2.0382725411117237
18,6.033396587753365
2,1, 1, 1, 0,12,15.00,30.00,Tuesday
7,-4.15
8,4231.2947904945499
9,1.0
10,681.6705029034473
11,1.0
12,681.6705029034473
13,4231.2947904945499
14,7.098945568545007
15,24.31366101577566
16,13.049374180892926
17,2.2906199400641755
18,6.2161819469951269
2,1, 1, 1, 0,12,30.00,45.00,Tuesday
7,-3.7249999999999998
8,3710.7631796802099
9,1.0
10,602.01865277251
11,1.0
12,602.01865277251
13,3710.7631796802099
14,7.0177918473113529
15,21.285363619646959
16,12.220471158958617
17,1.9971609726861744
18,6.351211569974808
2,1, 1, 1, 0,12,45.00,60.00,Tuesday
7,-3.3
8,3028.0947855069919
9,1.0
10,493.55004396206007
11,1.0
12,493.55004396206007
13,3028.0947855069919
14,6.828774251129419
15,17.106977370524448
16,10.883606100039515
17,1.4032727646073227
18,6.414419350651901
2,1, 1, 1, 0,13, 0.00,15.00,Tuesday
7,-3.0249999999999996
8,2493.066776141015
9,1.0
10,412.335026418112
11,1.0
12,412.335026418112
13,2493.066776141015
14,6.694720456517287
15,14.262627363145575
16,9.862898197600657
17,1.0139290271887376
18,6.4205598563940609
2,1, 1, 1, 0,13,15.00,30.00,Tuesday
7,-2.75
8,1819.8523785151663
9,1.0
10,305.94037763660148
11,1.0
12,305.94037763660148
13,1819.8523785151663
14,6.399697551842294
15,10.089343950503899
16,8.408931550257421
17,0.34734865717325649
18,6.378779690579806
2,1, 1, 1, 0,13,30.00,45.00,Tuesday
7,-2.475
8,1658.3119082134397
9,1.0
10,281.0763483922329
11,1.0
12,281.0763483922329
13,1658.3119082134397
14,6.376104031135131
15,9.575931559094493
16,8.086186814723078
17,0.43577624617864788
18,6.3244499380855319
2,1, 1, 1, 0,13,45.00,60.00,Tuesday
7,-2.2
8,1500.1495077213409
9,1.0
10,256.7721209415886
11,1.0
12,256.7721209415886
13,1500.1495077213409
14,6.342991558768825
15,8.969736627745919
16,7.829647365229675
17,0.5492996752561794
18,6.277969870983223
2,1, 1, 1, 0,14, 0.00,15.00,Tuesday
7,-1.9250000000000003
8,1223.4754548912934
9,1.0
10,210.73276284570657
11,1.0
12,210.73276284570657
13,1223.4754548912934
14,6.214180856575602
15,7.4218031299146649
16,7.193075391753155
17,0.40207867423055179
18,6.235804617511535
2,1, 1, 1, 0,14,15.00,30.00,Tuesday
7,-1.6500000000000002
8,1083.6066169245144
9,1.0
10,189.38488290342594
11,1.0
12,189.38488290342594
13,1083.6066169245144
14,6.182881457243639
15,7.016371626893017
16,6.927216432388207
17,0.49890821211204186
18,6.198861980211239
2,1, 1, 1, 0,14,30.00,45.00,Tuesday
7,-1.375
8,1033.9849641949475
9,1.0
10,179.3940297802914
11,1.0
12,179.3940297802914
13,1033.9849641949475
14,6.179499689110887
15,7.1389540418728079
16,6.850905607177992
17,0.707131164594216
18,6.168542292859051
2,1, 1, 1, 0,14,45.00,60.00,Tuesday
7,-1.1
8,983.338804801501
9,1.0
10,169.43349014176136
11,1.0
12,169.43349014176136
13,983.338804801501
14,6.1739250824583868
15,7.237512543879704
16,6.7711278894536239
17,0.9133726200842602
18,6.14462979764117
2,1, 1, 1, 0,15, 0.00,15.00,Tuesday
7,-1.1
8,1033.916034865693
9,1.0
10,178.15692317953907
11,1.0
12,178.15692317953907
13,1033.916034865693
14,6.231026666590577
15,8.054412218220522
16,6.9345292219477419
17,1.0724021146652377
18,6.130358229128893
2,1, 1, 1, 0,15,15.00,30.00,Tuesday
7,-1.1
8,970.5605862814177
9,1.0
10,166.40516310952945
11,1.0
12,166.40516310952945
13,970.5605862814177
14,6.185375647414821
15,7.691022079200305
16,6.7553583875785538
17,0.9935912124429933
18,6.12004347535449
2,1, 1, 1, 0,15,30.00,45.00,Tuesday
7,-1.1
8,816.7254110730805
9,1.0
10,140.8967369711617
11,1.0
12,140.8967369711617
13,816.7254110730805
14,6.076488379428526
15,6.483889174707914
16,6.302890539367922
17,0.7255587612158934
18,6.10250630884609
2,1, 1, 1, 0,15,45.00,60.00,Tuesday
7,-1.1
8,670.7520999739516
9,1.0
10,116.57355796743004
11,1.0
12,116.57355796743004
13,670.7520999739516
14,5.965101270798502
15,5.273324876880188
16,5.828386750443315
17,0.4421154250668451
18,6.069166709630279
2,1, 1, 1, 0,16, 0.00,15.00,Tuesday
7,-1.1
8,531.3242103430646
9,1.0
10,93.14939272689483
11,1.0
12,93.14939272689483
13,531.3242103430646
14,5.869855718738765
15,4.222399102392394
16,5.416785036161571
17,0.2414802612601079
18,6.018929863106102
2,1, 1, 1, 0,16,15.00,30.00,Tuesday
7,-1.1
8,329.1422650881374
9,1.0
10,57.94047897402063
11,1.0
12,57.94047897402063
13,329.1422650881374
14,5.687971688711097
15,2.095916743980589
16,4.782027519358394
17,-0.15177967234785684
18,5.945078793183169
2,1, 1, 1, 0,16,30.00,45.00,Tuesday
7,-1.1
8,254.7322056029721
9,1.0
10,45.38251793443488
11,1.0
12,45.38251793443488
13,254.7322056029721
14,5.618108212911579
15,1.4829387147752045
16,4.533091749663868
17,-0.24362307212675206
18,5.857536540489052
2,1, 1, 1, 0,16,45.00,60.00,Tuesday
7,-1.1
8,177.56161520240969
9,1.0
10,32.02625108222755
11,1.0
12,32.02625108222755
13,177.56161520240969
14,5.511904028510326
15,0.6166871748609796
16,4.28373532554258
17,-0.3492558197127664
18,5.766314180338139
2,1, 1, 1, 0,17, 0.00,15.00,Tuesday
7,-1.1
8,97.31263596887948
9,1.0
10,17.762198626050539
11,1.0
12,17.762198626050539
13,97.31263596887948
14,5.3766391193339999
15,-0.6386798613236897
16,3.9671409563552517
17,-0.5772580888782386
18,5.6734351017472479
2,1, 1, 1, 0,17,15.00,30.00,Tuesday
7,-1.1
8,0.0
9,0.0
10,0.0
11,0.0
12,0.0
13,0.0
14,5.192935279751708
15,-2.4777241309438207
16,3.5592578390569544
17,-0.9277747221154868
18,5.569553891827869
2,1, 1, 1, 0,17,30.00,45.00,Tuesday
7,-1.1
8,0.0
9,0.0
10,0.0
11,0.0
12,0.0
13,0.0
14,5.138999539249993
15,-2.6153718603366347
16,3.4763296978184146
17,-0.9425454115531693
18,5.469235647701036
2,1, 1, 1, 0,17,45.00,60.00,Tuesday
7,-1.1
8,0.0
9,0.0
10,0.0
11,0.0
12,0.0
13,0.0
14,5.070482726350265
15,-2.8095335702702695
16,3.4310464672641958
17,-0.9406526950064063
18,5.385437670134921
2,1, 1, 1, 0,18, 0.00,15.00,Tuesday
7,-1.25
8,0.0
9,0.0
10,0.0
11,0.0
12,0.0
13,0.0
14,5.013685705442339
15,-2.956956012970046
16,3.3414721818412547
17,-1.0747453100965459
18,5.318886363342949
2,1, 1, 1, 0,18,15.00,30.00,Tuesday
7,-1.4
8,0.0
9,0.0
10,0.0
11,0.0
12,0.0
13,0.0
14,4.962165719070621
15,-3.1093595307996595
16,3.2662993195461924
17,-1.201454095535837
18,5.264533575790336
2,1, 1, 1, 0,18,30.00,45.00,Tuesday
7,-1.5499999999999999
8,0.0
9,0.0
10,0.0
11,0.0
12,0.0
13,0.0
14,4.914945341657569
15,-3.2612471870507835
16,3.195441829244146
17,-1.3270785864923483
18,5.217094734231822
2,1, 1, 1, 0,18,45.00,60.00,Tuesday
7,-1.7
8,0.0
9,0.0
10,0.0
11,0.0
12,0.0
13,0.0
14,4.869863939572082
15,-3.4133066339776017
16,3.127476001092873
17,-1.4518803463686255
18,5.173136052331832
2,1, 1, 1, 0,19, 0.00,15.00,Tuesday
7,-1.825
8,0.0
9,0.0
10,0.0
11,0.0
12,0.0
13,0.0
14,4.850616250157602
15,-3.261158390280118
16,3.058859771783318
17,-1.5769907119791924
18,5.134394909050446
2,1, 1, 1, 0,19,15.00,30.00,Tuesday
7,-1.9500000000000002
8,0.0
9,0.0
10,0.0
11,0.0
12,0.0
13,0.0
14,4.830464732001373
15,-3.1909320994858856
16,3.0011182043989494
17,-1.6987262062515925
18,5.10258560156906
2,1, 1, 1, 0,19,30.00,45.00,Tuesday
7,-2.075
8,0.0
9,0.0
10,0.0
11,0.0
12,0.0
13,0.0
14,4.805518246372222
15,-3.26380072859259
16,2.9530861992043926
17,-1.805405494666445
18,5.07624774201769
2,1, 1, 1, 0,19,45.00,60.00,Tuesday
7,-2.2
8,0.0
9,0.0
10,0.0
11,0.0
12,0.0
13,0.0
14,4.783585426988164
15,-3.2385433718710354
16,2.8992601740231409
17,-1.9264044137844963
18,5.05233688809702
2,1, 1, 1, 0,20, 0.00,15.00,Tuesday
7,-1.9250000000000003
8,0.0
9,0.0
10,0.0
11,0.0
12,0.0
13,0.0
14,4.778597252914307
15,-2.936621955664271
16,2.953941006177729
17,-1.7233150157098863
18,5.0314122333120558
2,1, 1, 1, 0,20,15.00,30.00,Tuesday
7,-1.6500000000000002
8,0.0
9,0.0
10,0.0
11,0.0
12,0.0
13,0.0
14,4.773411750193799
15,-2.637791819044437
16,3.006932336195291
17,-1.5095272405057472
18,5.0139415080585529
2,1, 1, 1, 0,20,30.00,45.00,Tuesday
7,-1.375
8,0.0
9,0.0
10,0.0
11,0.0
12,0.0
13,0.0
14,4.770035077176764
15,-2.340244774813248
16,3.0618007088791048
17,-1.2922777555902486
18,4.999453834536985
2,1, 1, 1, 0,20,45.00,60.00,Tuesday
7,-1.1
8,0.0
9,0.0
10,0.0
11,0.0
12,0.0
13,0.0
14,4.7682621810755319
15,-2.0439951956836759
16,3.118923126760251
17,-1.0723447547784418
18,4.98720354400458
2,1, 1, 1, 0,21, 0.00,15.00,Tuesday
7,-1.25
8,0.0
9,0.0
10,0.0
11,0.0
12,0.0
13,0.0
14,4.723353911470582
15,-2.328238793838405
16,3.07348406444396
17,-1.1653578074186726
18,4.970352732473755
2,1, 1, 1, 0,21,15.00,30.00,Tuesday
7,-1.4
8,0.0
9,0.0
10,0.0
11,0.0
12,0.0
13,0.0
14,4.679739856563327
15,-2.5464376620370046
16,3.018127858028379
17,-1.2717598019223715
18,4.944138205447287
2,1, 1, 1, 0,21,30.00,45.00,Tuesday
7,-1.5499999999999999
8,0.0
9,0.0
10,0.0
11,0.0
12,0.0
13,0.0
14,4.6224437425561739
15,-2.8948831353241428
16,2.9647485738196339
17,-1.3662611784736783
18,4.907593785652074
2,1, 1, 1, 0,21,45.00,60.00,Tuesday
7,-1.7
8,0.0
9,0.0
10,0.0
11,0.0
12,0.0
13,0.0
14,4.559920406620706
15,-3.351506909764428
16,2.9127076549936534
17,-1.4401582897218078
18,4.8629024353794298
2,1, 1, 1, 0,22, 0.00,15.00,Tuesday
7,-1.5499999999999999
8,0.0
9,0.0
10,0.0
11,0.0
12,0.0
13,0.0
14,4.568259819508073
15,-2.858416566702901
16,2.897029623037554
17,-1.3852868940413146
18,4.823731730115035
2,1, 1, 1, 0,22,15.00,30.00,Tuesday
7,-1.4
8,0.0
9,0.0
10,0.0
11,0.0
12,0.0
13,0.0
14,4.565744014401756
15,-2.52457166988884
16,2.9151795099359107
17,-1.2954801193416188
18,4.797464101539409
2,1, 1, 1, 0,22,30.00,45.00,Tuesday
7,-1.25
8,0.0
9,0.0
10,0.0
11,0.0
12,0.0
13,0.0
14,4.562314359340989
15,-2.302775328587304
16,2.9387628370012637
17,-1.191674761815193
18,4.781991256427154
2,1, 1, 1, 0,22,45.00,60.00,Tuesday
7,-1.1
8,0.0
9,0.0
10,0.0
11,0.0
12,0.0
13,0.0
14,4.562818223237752
15,-2.0172364760999437
16,2.9649531772992079
17,-1.0847716105979544
18,4.772189974292179
2,1, 1, 1, 0,23, 0.00,15.00,Tuesday
7,-1.25
8,0.0
9,0.0
10,0.0
11,0.0
12,0.0
13,0.0
14,4.517375329300047
15,-2.3207210538448179
16,2.8661144985010198
17,-1.3507741606156288
18,4.757496333106528
2,1, 1, 1, 0,23,15.00,30.00,Tuesday
7,-1.4
8,0.0
9,0.0
10,0.0
11,0.0
12,0.0
13,0.0
14,4.474641514281597
15,-2.625303237448862
16,2.756324206057343
17,-1.6373684141593686
18,4.732549853507198
2,1, 1, 1, 0,23,30.00,45.00,Tuesday
7,-1.5499999999999999
8,0.0
9,0.0
10,0.0
11,0.0
12,0.0
13,0.0
14,4.427395927693317
15,-2.9305410885503875
16,2.6454440344452339
17,-1.9240434706693464
18,4.698314758848795
2,1, 1, 1, 0,23,45.00,60.00,Tuesday
7,-1.7
8,0.0
9,0.0
10,0.0
11,0.0
12,0.0
13,0.0
14,4.376249538494848
15,-3.236123075997714
16,2.5313695979607475
17,-2.210246433020984
18,4.657734847213781
2,1, 1, 1, 0,24, 0.00,15.00,Tuesday
7,-1.7
8,0.0
9,0.0
10,0.0
11,0.0
12,0.0
13,0.0
14,4.342644564536042
15,-3.2900703753057516
16,2.4845766450248449
17,-2.272530841744924
18,4.616597779108485
2,1, 1, 1, 0,24,15.00,30.00,Tuesday
7,-1.7
8,0.0
9,0.0
10,0.0
11,0.0
12,0.0
13,0.0
14,4.304914505312927
15,-3.3447217592824165
16,2.4415406521151228
17,-2.332540554147556
18,4.577851492989264
2,1, 1, 1, 0,24,30.00,45.00,Tuesday
7,-1.7
8,0.0
9,0.0
10,0.0
11,0.0
12,0.0
13,0.0
14,4.27022884373626
15,-3.3991841535928088
16,2.397745118680632
17,-2.392689482315461
18,4.541643962723213
2,1, 1, 1, 0,24,45.00,60.00,Tuesday
7,-1.7
8,0.0
9,0.0
10,0.0
11,0.0
12,0.0
13,0.0
14,4.235212316397839
15,-3.4537338193368747
16,2.355355635540377
17,-2.45235396512453
18,4.507008750887928
End of Data
 Number of Records Written=        1152
